# vtk DataFile Version 4.2
vtk output
ASCII
DATASET POLYDATA
POINTS 181 double
28.358410546865 28.213890039678 26.596473434434 28.340017082752 28.307002098091 26.561702461611 28.335538321787 28.334058141623 26.557072532141 
28.318554560038 28.432322198861 26.535721901444 28.314238422091 28.460467747906 26.533073545753 28.297394943972  28.55114091906 26.505965653971 
 28.29133192704 28.581541982197 26.494249120511  28.27656277444 28.654528351071 26.464772824821 28.268979687388 28.692102858738 26.449726295734 
28.256941692902 28.751433966161 26.425562214003 28.250414641049 28.786037274594 26.414590498757 28.232449343888  28.86783374143 26.372621932599 
28.230141124464 28.878848664985 26.367672202922 28.223186754859 28.902892705561 26.344757199241 28.207312132122 28.964386137538 26.298233682699 
28.203201434473 28.978317537551 26.284442837911  28.18102387766 29.046272637679 26.203732966469  28.16920348999 29.078723918892 26.157417506964 
28.153552291595 29.116449092095 26.091502825387 28.131618068306 29.157408510698  25.98870279561 28.125140463226 29.167732929702 25.956793234934 
28.120420837486 29.169061169919 25.928122166673 28.098484878619 29.198934765798 25.815608158257  28.08889076153 29.203521637984 25.758976687579 
28.075361223135 29.217343360253 25.685551611078 28.063227218883 29.224507705112 25.615121009586 28.053622428962 29.233739656533 25.562487738801 
 28.04071892489 29.240604482417 25.486930828788 28.032911126548 29.247489230276 25.443602254375 28.019552522004 29.253305332068 25.364250660937 
 28.01252091832 29.258247502788 25.324128291137  27.99945381908 29.261503477288 25.244378572597 27.992533560159 29.264025795761 25.202842027101 
27.980591884782 29.264051309446 25.127378818974 27.972759582521 29.264516510393 25.078276560445 27.962636863201 29.262983148962 25.012946884742 
27.953262645506 29.260103250634  24.95117005269 27.945475105569 29.256433610756 24.898731672924 27.934987633781  29.24551754981 24.822884001966 
27.929606851792 29.239473932317 24.783581330262 27.918206520307 29.218000189622 24.692722558678  27.91488949037 29.211977487853 24.666483552247 
27.902373682404 29.177588807084 24.557269683196 27.901544897539 29.175396960348 24.550112338926 27.899139029377 29.164807847022 24.525636144687 
27.890405737937 29.128459867127 24.438617360823 27.888500912813 29.111906228762 24.412087825708  27.88203295535 29.067559321031 24.332387473399 
27.877642618138 29.013670025243 24.257468046206 27.876171198911 28.999173495632 24.235478660624 27.875109889936 28.979323535037 24.211395999068 
27.872744168011 28.926485716109 24.150194858201 27.871648955238 28.854274124487 24.080067699087 27.871544932404 28.849710733525 24.075415985368 
27.871537819062  28.84644080299 24.072508972211 27.872186627265 28.768849371405 24.008697318793 27.872968388321 28.727790506966 23.977701680292 
27.874375488459 28.680949445472 23.945597984092 27.876608021655 28.616306751798 23.903130897356 27.878298117556 28.579966169481 23.882006748054 
27.883458705084 28.486586298453 23.832895853458 27.884753883844 28.466737647774 23.823710133354 27.890564739224 28.387959584718 23.791490120806 
27.893753472878 28.343790910596   23.7729875008 27.894889793171 28.329434245872 23.767604537692 27.904113535386  28.22559908978 23.735026473963 
27.911051871839 28.155692322982 23.717698193062 27.913758596791 28.129457046156 23.711845141584  27.91637355984 28.105570135717  23.70746748378 
27.922966233711 28.043547568827 23.694854952274 27.928033196607 27.998804778885 23.687722464594  27.93380242609 27.947000685453 23.678848637989 
27.939016746759  27.90253967544 23.672894257534 27.947066210743 27.834013093273 23.663797643515 27.950858832635 27.802727608579 23.660388488645 
27.962406961207 27.709284999279 23.651599510228 27.963728029233 27.699007867723 23.650955035154  27.96914379004 27.657614527482 23.648959012169 
27.976745270722 27.598646886508 23.645397198013 27.979074818638 27.581114292329 23.644777074696 27.990686154874 27.497634061585 23.645107342507 
27.999216020679 27.438952562722 23.647664472005 28.005443393119 27.395943193222 23.649384346081 28.016908870559 27.322011358104 23.657149968512 
28.023094879623  27.28034706165 23.659785669377  28.02619905961 27.260745237761 23.662251018998 28.046765786444 27.137636962993 23.684505016603 
28.048505590344  27.12746911851 23.686603103353 28.059644273899 27.066269763475 23.703447266764 28.070574171118 27.004989823233 23.718901119885 
28.072467953052 26.994998447048  23.72212698641 28.093525582556 26.886005773807 23.759838930873 28.101206326861 26.848202521466 23.775302557833 
28.118134556421 26.765760714947 23.810150786035 28.131383082493 26.704898614563 23.840626840749 28.147166137687 26.635936487973 23.880034471698 
28.157726702142 26.590697330732 23.907193603999 28.175736085396 26.516516753988  23.95610675144 28.182090894857 26.491320871102 23.974223659858 
28.203380874495 26.410684704387 24.038223726502 28.205096417198 26.404349072984 24.043522647118 28.211826058017 26.381349720598 24.065931475229 
28.227835053141 26.325342624281 24.118106369753 28.232007179688 26.312454385552  24.13319855819 28.251469658335 26.253689658284 24.204789909307 
28.259375424468 26.233050047852 24.236698637351 28.276699149802 26.189694868456 24.308257936411 28.284922561638 26.172153432375 24.344886278329 
28.301786084363 26.138340163034  24.42188823003 28.309842042804 26.125087959404 24.461212273468 28.325070135018 26.100321754272 24.535794924685 
 28.33595387701 26.086860467195 24.592810908137 28.348210358842 26.070608447885 24.656061610106 28.362268952939 26.056389426456  24.73248320442 
28.371314720862 26.046492999245 24.781001202823 28.385258856894  26.03645858692 24.860361919018  28.39786990487  26.02862783233 24.933224718533 
28.404168587853 26.025487073203 24.970290869461 28.411598742945 26.022929827489 25.015019992471 28.422220875073 26.017443634272 25.077362594194 
28.432373751967  26.01534195706 25.139701287573 28.438759975842 26.014400585409 25.179245842614 28.446188585419 26.014671885312 25.226440916764 
 28.45436966518 26.014070149755  25.27762835874 28.458144249322 26.014058326779   25.3014778552 28.471291992987 26.018041181455 25.388073219634 
28.476472419669 26.020022709704 25.422554012955 28.490569998187 26.032217288052 25.522340875092 28.493899891048  26.03516616693 25.545970787757 
28.509686381441 26.057726069261 25.665505956325 28.510289834898 26.058574250815 25.670062878991 28.513335611442 26.064857220888 25.694815045691 
28.525167195092 26.088440564042 25.790246296705 28.527233768026 26.094032190325 25.808203628761 28.539078304845 26.123845151315 25.909169311615 
28.543627489711 26.138869728862 25.951076003886 28.551933041944 26.164500564175 26.026010651608 28.558754693284 26.191967553952 26.093172404876 
28.563707154565 26.210718899357 26.140890183077 28.572494931724 26.254358433837 26.234635407396 28.574264631911 26.262710178789 26.253131980966 
28.579710413345 26.296107239587 26.316786976308 28.583719137746 26.319527845054  26.36262604852 28.584746139556 26.327208132506 26.375840186507 
28.592206970011 26.380627667491 26.469757605398 28.595296110662 26.412128639582 26.516856262541 28.599080962998 26.450241177847 26.574139499574 
28.602875631983 26.513945703119 26.653884502489 28.603796727966 26.530340662886 26.674056818244 28.604545226508 26.568387412326 26.712089118698 
28.605881205648 26.617191819073  26.76325076946  28.60540032547 26.652680135089 26.791272638108 28.604759261301 26.711529512159 26.838729020744 
28.601899165153 26.776768161586 26.877750783837 28.600610912004 26.810934908213 26.899512378102 28.597449928923  26.85486092486 26.917978025555 
28.593282497842 26.913335769789 26.942815776523 28.588344290351 26.962828472227  26.95491957243 28.583428906084 27.016717863845 26.971015896439 
28.575902782524 27.082906817938 26.981374603311 28.571624438639 27.120122070153 26.986903524252 28.566956281979 27.153839859826 26.986907167829 
28.558442528079 27.222389470782 26.993089075632 28.549183879301 27.285026633654 26.989387419513 28.543412554626 27.322792152409 26.985960560484 
28.533302705454 27.380785092902 26.972813394328 28.527277573652   27.4185290336 26.967763287025 28.523449001184 27.440241437016 26.962566230165 
28.510444976723 27.510965067065 26.942267144979 28.500536439226 27.560102456475 26.922641573132 28.494441957375 27.590558592893 26.910774347694 
28.483507053177  27.64547803769 26.889721739771 28.473863126498 27.691034759182 26.868634796591  28.46307092287 27.743912288947   26.8466970132 
28.448444441499 27.810094596889 26.812167227627 28.439632975117 27.852330723251 26.793436026763 28.418918937435 27.946063684755 26.744539732444 
28.413897043907 27.969748237131 26.733525620928 28.390058020489 28.075234992417  26.67516337156 28.386100837488 28.091706591786 26.664566263147 
28.363360581248  28.19168946583 26.608332182133 
POLYGONS 1 182
181 0 1 2 3 4 5 6 7 8 9 10 11 12 13 14 15 16 17 18 19 20 21 22 23 24 25 26 27 28 29 30 31 32 33 34 35 36 37 38 39 40 41 42 43 44 45 46 47 48 49 50 51 52 53 54 55 56 57 58 59 60 61 62 63 64 65 66 67 68 69 70 71 72 73 74 75 76 77 78 79 80 81 82 83 84 85 86 87 88 89 90 91 92 93 94 95 96 97 98 99 100 101 102 103 104 105 106 107 108 109 110 111 112 113 114 115 116 117 118 119 120 121 122 123 124 125 126 127 128 129 130 131 132 133 134 135 136 137 138 139 140 141 142 143 144 145 146 147 148 149 150 151 152 153 154 155 156 157 158 159 160 161 162 163 164 165 166 167 168 169 170 171 172 173 174 175 176 177 178 179 180 

CELL_DATA 1
FIELD FieldData 6
ClosedSection 1 1 int
1 
SectionArea 1 1 double
        8.80109 
SectionLength 1 1 double
        10.7114 
SectionMinSize 1 1 double
        1.36038 
SectionMaxSize 1 1 double
        1.83912 
SectionShapeFactor 1 1 double
       0.739693 
