# vtk DataFile Version 4.2
vtk output
ASCII
DATASET POLYDATA
POINTS 163 double
50.753300661945 51.022836838704 41.370815099929 50.716613911707 50.998346518318  41.35630299679 50.701673826628 50.988284193863 41.350292304644 
50.612439523551 50.928220191791 41.314432769148 50.564280849346 50.895777041193 41.295048843006 50.500902056557 50.852841612649 41.269268133647 
50.458252018205 50.824111561774 41.252103803507 50.399098972045  50.78370813117 41.227667353344 50.356826282041 50.755315718087 41.210749424688 
50.303657787829 50.719013196892  41.18880025783  50.25741391519 50.687384016797 41.169647796012 50.209087213125 50.653635758747 41.148845895192 
50.157658337224 50.616560323164 41.125393567154 50.111859541559 50.582495165041 41.103320785199 50.056210647747 50.539650903999 41.074855057955 
50.010813006535 50.502513463383 41.049156916034  49.95929619624 50.457540597039 41.016789133227 49.904641016066 50.401431935628 40.972937424019 
49.886301121351 50.381867222593  40.95738763353  49.84248018256 50.326329899091 40.910275114009 49.825522826525 50.305531750777 40.892829232607 
49.820505848707  50.29823121661 40.886368003432 49.777185033481 50.229149403023 40.823730228283 49.764936605486 50.203025088218 40.798551626001 
49.743304714801 50.151789045367 40.748308162601 49.730958584528 50.106888479703  40.70189277283 49.722696483167 50.073337821293 40.666862766905 
49.720291638858 50.011783794382 40.597994314397 49.719919037881 49.996875971249  40.58123931488 49.735544027361 49.940003433491  40.51117096314 
49.739451737685 49.924123813546 40.491771013777 49.741456343665 49.920458806958 40.486895751833 49.774759113059 49.856820055544 40.402785136588 
49.791421026196 49.836843778682 40.374143340087  49.82163771106  49.79770567178 40.318903249684 49.860489338269 49.764746816127 40.267549002026 
49.879296805881 49.747809094676 40.241575714921 49.942430418782 49.713789283438 40.180260569707 49.949094675103 49.709996138878 40.173559323775 
 49.95218666837 49.708835223124 40.171128763038 50.025600615504 49.679180607049 40.111050755949   50.0638510305 49.668161126379 40.084768979259 
50.106619731247 49.654379791334 40.053728415518 50.181707812451 49.636888100405 40.006826167533 50.191602568243 49.634235813616 40.000252129555 
50.220346660557 49.628367313823 39.983235102394 50.278560834828 49.615375969299 39.947518096336 50.297909707044 49.611648637129 39.936315858069 
50.370737963106  49.59504461934 39.891234431282 50.412421378848 49.585427741748 39.865303354011 50.469981669531 49.569962361065 39.827019324333 
50.534173261657 49.556578116445 39.788701038678 50.580011142127 49.544897774351 39.758933632023 50.661585053761 49.534046511486 39.717214924742 
50.686368821294 49.530864646335 39.704670200694 50.709395512581 49.529115530302 39.694382476571 50.791164227887 49.521314313431 39.656048964994 
50.883650097558 49.515929358316 39.616587033421 50.899133282904 49.515016683435 39.609968000487 50.921722628126 49.514806641605 39.601581685629 
51.007923414434 49.512105847724 39.567427834211 51.089452943209 49.513637421985 39.539753926922 51.123587252296 49.514740758659 39.528691106513 
51.147678128431 49.516660579101 39.522176132523 51.241008359064 49.521648180319 39.494160924592 51.325368647288 49.531232624464 39.474589189721 
51.355594558265 49.533843591884 39.466644221991 51.418979402136 49.542887942992 39.454026796598   51.4679010654 49.550641280539 39.445163863979 
 51.48900702381 49.554931577225 39.442411164651  51.57871808146 49.571208048303 39.428490863433 51.642085944284  49.58671665063 39.423203056722 
51.686927829809 49.595962921788 39.417503145565 51.785853469942  49.62469816148  39.41437380548 51.793274882558 49.626457022222 39.413689430372 
51.816641611739 49.634108503107 39.413929193297 51.899084500679 49.661723907968 39.415476770975 51.923252948079 49.672016387184 39.418419386243 
 52.00352977635  49.70260882624 39.424121046109 52.056919041826 49.727617438385 39.433195457462 52.106242812261 49.748821397054 39.439425984561 
52.189525684372 49.791731258932 39.457997995287  52.20614880874 49.799688631902 39.461016840928 52.246920260488 49.823329919019 39.473093635473 
 52.30165418892 49.855250404158 39.489513618411 52.322379027573 49.869744212155 39.498458179224  52.38888521838 49.913728297719 39.524298830681 
52.454173364741 49.963613448859 39.557264298949 52.465764501986 49.972178340152 39.562786537283 52.474566188329 49.979229750671 39.567600321233 
52.541304340975 50.036058560012 39.607909372153 52.569078547007  50.06192266129 39.627192765519 52.620149110533 50.114867642023 39.668753301887 
52.648526451216 50.146996374597 39.694916474022 52.693672398403 50.203498265553 39.742643820727 52.717267348089 50.236531824832 39.771557179316 
52.756517767655 50.295883556466 39.824639788829 52.774693093197 50.326092199476 39.852307686107  52.81002995147 50.391370931288 39.913516812224 
52.819689438306 50.410899757249 39.932157113443 52.852287354515  50.48888712297 40.008752114418 52.852528668285 50.489513499275 40.009374704098 
52.853527675886 50.492333480251 40.012209164271  52.88189462603 50.566304485316 40.085780121401 52.888093190129 50.581846405407 40.101151981274 
52.908219385344  50.64209546503 40.162149620422 52.917942910458 50.669754100421 40.189977263074 52.930657398506 50.718633336195 40.240767303509 
 52.94137569424 50.757986084453 40.281484635188 52.948153914923 50.796725196697 40.322928015868 52.955372690364 50.847973680182 40.378384624749 
52.955701924447 50.875281792172 40.409203829235 52.949167935793 50.933703659471 40.477748174998 52.943830385477 50.954641142495  40.50339405658 
52.926998287647 51.014040119339 40.576760091226 52.916039668868 51.038187518674 40.608070171274 52.894907626264 51.092421260748 40.677135458925 
52.874156908424 51.122927854875 40.719182185107 52.848021395803 51.167824674844 40.779474302111 52.813718861521 51.199028659941 40.827199484322 
52.772509270328 51.234507854658 40.882259636872 52.745367364895 51.252634293005 40.912586018483 52.700370600002 51.286093915794 40.966724250036 
52.685771070737 51.295952855296 40.983159954747 52.652210798459 51.329427152323  41.03318947732 52.600299751645 51.366404598316 41.093807225553 
52.592041684954 51.374867846897 41.106374249733 52.580449670606 51.381742295757 41.118343898093 52.525099453775 51.419429933088 41.181006803838 
52.465979269773 51.446607455044 41.233122457243 52.444140821154 51.457936662605 41.253835060213 52.380134013385 51.482791854577 41.305082381306 
 52.36138174491  51.49198890844  41.32226618346 52.352647654841 51.494555886077 41.328324901313 52.275377314547 51.520521736299 41.385614889265 
52.241532285168 51.526295595328 41.404364688939  52.18349246584 51.539172137847 41.439888740526   52.1351309903 51.543920508397 41.462713065992 
52.089884492187 51.549982927979 41.485902482359 52.024361780613 51.553772991537 41.513831464858 51.999688947329  51.55600294316 41.525257729158 
 51.96095859592 51.556077706753 41.539313114615 51.898753102075 51.554976807795 41.560504441591 51.833769213431 51.546799731193  41.57468122361 
51.783562831229 51.541465522889 41.586748260873 51.741705173456 51.533683885223 41.593031026988 51.663347571047 51.515703735697 41.600925812387 
51.570219119567 51.486659379155 41.601613804451 51.549619919241 51.480200285067 41.601726629083 51.532981764393 51.473736024855 41.600404785691 
51.441058613414  51.43473397146 41.589376710505  51.33861356777 51.385944982372 41.571056222183 51.332205244856 51.382581401631 41.569557136111 
51.325452133927 51.378759359433 41.567663019695 51.227504861289 51.324252833732 41.541242585762 51.136101876707 51.269558452333  41.51224869203 
51.121084650815 51.260889243801 41.507844117738 51.087794245295 51.240228771712 41.496445816311 51.016887346592 51.195868309335 41.471766168011 
50.988244008866 51.177100010787 41.460835276976 50.916587174751 51.131143317976 41.434617738093  50.84629219721 51.084431928878 41.407053942681 
50.818113912502 51.066088641276 41.396436803573 
POLYGONS 1 164
163 0 1 2 3 4 5 6 7 8 9 10 11 12 13 14 15 16 17 18 19 20 21 22 23 24 25 26 27 28 29 30 31 32 33 34 35 36 37 38 39 40 41 42 43 44 45 46 47 48 49 50 51 52 53 54 55 56 57 58 59 60 61 62 63 64 65 66 67 68 69 70 71 72 73 74 75 76 77 78 79 80 81 82 83 84 85 86 87 88 89 90 91 92 93 94 95 96 97 98 99 100 101 102 103 104 105 106 107 108 109 110 111 112 113 114 115 116 117 118 119 120 121 122 123 124 125 126 127 128 129 130 131 132 133 134 135 136 137 138 139 140 141 142 143 144 145 146 147 148 149 150 151 152 153 154 155 156 157 158 159 160 161 162 

CELL_DATA 1
FIELD FieldData 6
ClosedSection 1 1 int
1 
SectionArea 1 1 double
        7.07561 
SectionLength 1 1 double
        9.66366 
SectionMinSize 1 1 double
        1.25565 
SectionMaxSize 1 1 double
         1.7863 
SectionShapeFactor 1 1 double
       0.702935 
