# vtk DataFile Version 4.2
vtk output
ASCII
DATASET POLYDATA
POINTS 393 double
49.108877759005 45.593748869255 46.072962529557 49.123422109031 45.555136407445 45.990132945394 49.129826601828  45.53558925789 45.948315726928 
49.138853628706 45.503343563789 45.879516065694 49.150130586861 45.452222164828 45.770805165394 49.150159574015 45.452051214248 45.770442675855 
49.150189852002 45.451790736641 45.769892007728 49.156282300252 45.400613373235 45.661682298922 49.158378806269 45.366224846495 45.589209363378 
49.158584265773 45.349633928267 45.554340620581  49.15767906168 45.325549336079 45.503866222788 49.156558394898 45.299068993743 45.448385987601 
49.154980000697 45.281049238241 45.410729290825 49.151184563641 45.249017780812 45.343909823082  49.14471993987  45.20392992908 45.249987879685 
49.144155526709 45.200240769581 45.242307270134 49.143754842624 45.197686517901 45.236990652678 49.135903602139 45.152417666651 45.142854055468 
49.129881516788 45.118647165009 45.072647981406 49.127271456825 45.106298566932 45.047024962097 49.122775661198 45.086002921529 45.004936612064 
49.117222037207 45.061271482743 44.953658458038 49.114237131489 45.047630787316 44.925366512417 49.105771219823 45.016336116839 44.860651825708 
49.097644264916 44.984040103882 44.793793669287 49.093376011781 44.969844515427 44.764489494906 49.081025635838 44.922801150259  44.66716300031 
49.080456010201   44.9209796266 44.663405418966  49.07599045469 44.904410679515 44.629140266547 49.066316410443 44.868745889766 44.555391642073 
49.065509656576 44.865318486051 44.548289692989 49.049409961015 44.810988386602 44.436107059365 49.049320679799 44.810657622083 44.435423043159 
49.048725287065 44.808793247295 44.431578541023 49.031924200096 44.757173480924 44.325171850288 49.027448846743 44.745934806182 44.302102497573 
49.011696596871 44.703179348347 44.214187445103 48.998856215692 44.674740763586  44.15599316195 48.988247312233 44.650149135653 44.105611943847 
48.967911434226 44.607652821603  44.01878816251 48.964671811245  44.60109222792 44.005396234902 48.958112617745 44.589612211963 43.982068706619 
 48.93621710391 44.549985636499 43.901458075693 48.929925728445 44.538861107984 43.878845179787 48.899601767962 44.491764157429 43.783551142383 
48.891944030183 44.479465327059 43.758635043313 48.860786834885 44.433584639043  43.66599483838 48.858337083384 44.429897473918  43.65854341679 
 48.85174343431 44.420872010344 43.640375047925  48.82843947852 44.389408597751 43.577076765856 48.816933394984 44.375049226725 43.548292390139 
48.802341540796 44.356694435171 43.511485098842 48.784961146177 44.336140136003 43.470391193776  48.77275007056 44.321180917659 43.440431154485 
48.755397234538 44.301069235552 43.400263544256 48.738687050464 44.280400319516 43.358848936979  48.72853994671 44.268122627962 43.334274318651 
48.711714639271 44.247035254066 43.291994605783 48.697297293498  44.22864644925  43.25509505376 48.689560277475 44.218454415245 43.234613106622 
48.662486130606 44.181929906759 43.161135458947 48.642738303436 44.155006165622 43.106946994191 48.624587885871 44.129257384173 43.055035540615 
 48.59907301474 44.094304780807  42.98467311931 48.585612914879 44.076535468573 42.948960385428 48.559995843658 44.043612705877 42.882873229345 
48.543974146736 44.024531505588 42.844710975239 48.525710810146 44.001823742525 42.799199740104 48.501162811986 43.975033483289 42.745864474148 
48.494296409487 43.967423613206 42.730701683567 48.484004329688 43.957793510742 42.711704829769 48.460800863742 43.935787075311 42.668256085097 
48.427522261283 43.907610289723 42.613050763143 48.420568002879 43.901623569019 42.601307393453 48.387790165723 43.875530472429  42.55041847002 
48.373210666542 43.863675228206  42.52726004434 48.370213733893 43.861384335734 42.522806374093 48.315462951675 43.822700348267 42.448096366913 
48.304938891782 43.815809739969 42.434880679763 48.244910972992 43.780017744303 42.366874211821 48.230472521742 43.771879494822  42.35150538033 
48.162983742378 43.737333468303 42.287006086396 48.149289958982 43.730642591228 42.274588154494 48.069953030005 43.695849714187 42.210984403109 
48.062503045297 43.692894634031 42.205667241388 48.015535311897 43.676278740461 42.176375771851 47.970033881451 43.659600853818 42.146779113543 
47.962756433126 43.657166026449 42.142533995212 47.872898901333 43.630637298017 42.097542143056 47.840878312495 43.622037637164 42.083302537278 
47.772304062598 43.605992023284 42.057787325558 47.704765329741 43.591799325805 42.036040025927 47.669399520836 43.585478151244 42.026984917892 
47.576215131362 43.572092913633 42.009994039179 47.564322075581  43.57011786092 42.007265373113 47.559668713445 43.569610488255 42.006755129654 
47.458076745475 43.560030910632 41.998760266894 47.407935022428 43.557924647917 42.000320692636 47.351650946042 43.556329589061 42.003687786551 
47.253267580272  43.55877385855  42.02056247057 47.245751471078 43.558978873608 42.021890027739 47.230874535408 43.560092394331 42.026004080355 
  47.1393039227 43.566018532895 42.049378335709 47.092837197486 43.571428056251 42.066284824409 47.032615729933 43.577709282299 42.086663575442 
46.948481370894 43.589714101034 42.121916811518 46.930516475289 43.592094243951  42.12905954449 46.912514476133 43.595209744575  42.13775110267 
46.834305785765 43.607316430792 42.172511101644 46.785117271074 43.616355859567 42.197365935387 46.741681419359 43.624278447122 42.219188648521 
46.676859035276 43.637560690055  42.25482000623 46.653657794432 43.641900163685 42.266702636838 46.636030586373 43.645719853966 42.276828404953 
46.568015095343  43.66012395544 42.315196959012 46.497630567936  43.67806942835 42.361285821035 46.483072458346   43.6815337502 42.370298973614 
46.470052325998 43.685150592884 42.379448905499 46.399303257539 43.704359062382 42.428233816093 46.327490897517 43.726742066898 42.483812775591 
46.319052774671 43.729279870244 42.490149686038 46.311710989474 43.731777908932 42.496272244069 46.241720598355 43.754581725584 42.552517555853 
46.175323701297 43.779414960311 42.612596195104 46.173828590011 43.779940132834 42.613877590733 46.171282758647 43.780906465527 42.616210904987 
46.103965424905  43.80565999065 42.676231984669 46.074299614258 43.816558132723  42.70266061383 46.025416262142 43.833887724033 42.744890016562 
45.975061812924 43.852519321335  42.79002945358 45.933379395664 43.867469770097 42.826402813097 45.848557790187 43.900460224062 42.905812067632 
45.846189271984 43.901363113874 42.907990978392  45.84469583736 43.901930032808 42.909359849676 45.754096542335 43.933845457917 42.987200849106 
45.711556980005 43.947949869608 43.021899655871 45.656272103559 43.964305367055 43.062847236499 45.569781456389 43.989611254935 43.126316562423 
45.554995696221 43.993605586608 43.136470009076 45.530408405944 44.000387405624 43.153647463417 45.449699635874 44.022132823321 43.208949076194 
45.393249457386 44.038676788534 43.250431545618 45.347049100621 44.050968483785 43.281760173118 45.292285364253 44.067661888277 43.323355231927 
45.250687237114  44.08010257892 43.354447541684 45.218005851238 44.090880422234 43.380983403269 45.159495753144 44.109324418037 43.426702148436 
45.099744666206  44.12925488335 43.475690876411 45.072083881284 44.138491578122 43.498390853238 45.045663414129 44.147787952892  43.52106814835 
44.989475927727 44.167551460413 43.569280945857 44.942510290941 44.184883884081 43.611287433803 44.913288153997 44.195810770777 43.637723483629 
44.880243714713  44.20860748397  43.66854270026 44.841696491629 44.223522690126 43.704467884077 44.795802902014  44.24155312092 43.747812385726 
44.769814455791 44.251868408385 43.772578041745 44.754585768116 44.258001576136  43.78727632859  44.69810795942 44.280720705279 43.841731165974 
44.649779479067  44.30039489905 43.888818480161 44.626469677752 44.309909389348 43.911582629217 44.561494085581 44.336086384323 43.974313810971 
 44.55761803053 44.337651077304 43.978062551737 44.541589218351 44.343795348505 43.992879646206 44.490352677405 44.363803158382   44.0410146732 
44.476599206769 44.369209110733 44.054009608466 44.425029207293 44.389352191985 44.102468527699 44.393876417539 44.402056578272 44.132868086927 
44.357795122325 44.417130428772  44.16883216748 44.309170284374 44.438660600171 44.219852771051 44.288605232235 44.448144751059  44.24222563844 
44.219316644496 44.482144669822 44.321901233622 44.217678071433 44.482989805675 44.323871736745 44.211324441313  44.48635078729 44.331688718235 
 44.14782403437 44.520422041785 44.410823361602 44.133493524747  44.52814145998 44.428745899332 44.077712047015   44.5595226656  44.50130971616 
44.058674854626 44.570585458323 44.526815707596 44.009314118324 44.601082440746 44.596756218275 43.995327946259 44.610423747323 44.618043949873 
43.948927450838  44.64418749274 44.694492031543 43.941069628353 44.650258807151 44.708180762915  43.89590188696 44.689137740538 44.795224636206 
43.894456946101 44.690415789127 44.798081233659 43.887993329482  44.69637745374 44.811373291859  43.85150252352 44.730369104233 44.887117380803 
43.843420527781 44.737868846886 44.903832848349 43.807968852982 44.771315429766 44.978308175443 43.787274169056 44.790675578649 45.021438070279 
43.764809136832 44.812857123481 45.070704733161 43.729316640023 44.848790213282  45.15040709033 43.723540092943 44.855139895851 45.164432067283 
43.710759400467 44.870470425153 45.198154492032 43.687271747329 44.899020787129 45.260918976908 43.677889289689 44.911905024526 45.289098151936 
43.657416584031 44.944802202575 45.360632004967 43.637028790488 44.981032019647 45.439154928195 43.630928531852 44.993440872721 45.465943998714 
 43.61811894342 45.020077149679 45.523414187141 43.606583599612 45.044598616303 45.576290783458  43.60036167655 45.057336038368 45.603784433739 
43.582390617369 45.096881856275 45.688983200161 43.563004059071 45.134259201824 45.769796672006 43.557696952378 45.144527252178 45.791994975632 
43.547214375603 45.163571967642 45.833243667983 43.533898173269 45.188540454846 45.887271626873 43.525982094279 45.202799777706   45.9181637544 
 43.51198089687 45.229127606392 45.975128348781 43.493206816942 45.262807673465  46.04810370744 43.489834374848 45.268847840852 46.061191731203 
43.487715868897 45.272545572216 46.069210527353 43.466306832726 45.310921429073 46.152362437066 43.453419030929 45.334006545247 46.202383816765 
43.440316522805  45.35772501775 46.253760993936 43.419042911547 45.398224480317 46.341356735517 43.413292047417 45.409395768983 46.365504977708 
43.390675413745 45.461477297859 46.477585637022  43.38912051318 45.465084915516 46.485347914897 43.388907985279 45.465753729461 46.486777920423 
43.371541954113 45.524554394321 46.612343484058 43.370920204086  45.52805708906  46.61977403925 43.360668621437 45.585825753992 46.742323148109 
43.359554815579  45.60795010163 46.788921595051 43.357832715705 45.642167318329 46.860990063244 43.357951623338 45.643341411677 46.863441701794 
43.363357697361 45.693271213678 46.967659031347  43.36428661861 45.697230245316 46.975862924986  43.37551691742  45.74170823996 47.067935303894 
43.380284343944 45.753183143625 47.091465927767 43.396174909731 45.790677481485 47.168315076679 43.409232437947 45.811985865527 47.211508607714 
43.426834662905 45.841112440462 47.270579520584  43.45385655238 45.875751412951 47.340103404717 43.468217702571 45.894874463171 47.378551724369 
43.488882288816 45.917507250743 47.423618927001 43.518225714008 45.946845591069 47.481733375095 43.571442869043 45.995880473742 47.578365343288 
43.572191173509 45.996589751104 47.579765662713 43.572641641721  45.99701757251 47.580610413005 43.627165371603 46.046504849891  47.67803657113 
43.675621976517 46.092134755648 47.768085543521 43.685395593942 46.101386061612 47.786348723598 43.690038280337 46.106124640771 47.795746614992 
43.723127646116  46.14089543627 47.864823251023   43.7460523888 46.165293556946 47.913328272947 43.750276640762 46.169784677089  47.92225638792 
43.797425905156 46.218901762836 48.019785150944 43.816886162579 46.237762774895 48.057074602577 43.851299856945 46.269619521113 48.119873108888 
43.886754060737 46.301181087737 48.181927503329 43.906741480131 46.317819337694 48.214485800772 43.949291249916 46.352160702351 48.281531526581 
43.973232653886 46.368178098704 48.312314033142 44.006304499882 46.391270185975 48.356865153561 44.055389369886 46.421102226847 48.413660494344 
44.067371205169 46.428562797663 48.427899242655 44.081359415876 46.436247214544  48.44236866801 44.132617497718 46.465190080122 48.497037209426 
44.175197858853 46.485761817469 48.535160332672 44.205223086999 46.500805099875 48.563170952921 44.260388873554 46.523532803227  48.60432006754 
44.286900221521  46.53483696993 48.624897154533 44.303446252976 46.540757744489 48.635357326251  44.37671091827 46.568124227529 48.684088849428 
 44.45195015493 46.591846712396 48.724931604219 44.477938028735 46.600669607403 48.740360000186 44.531120035368 46.615544408723  48.76525320866 
44.591632850222 46.633230961346 48.795176782519 44.617195111929 46.639168983736 48.804597166355 44.725733613036 46.664539950821 48.844928072167 
44.743491066156 46.668238560779 48.850576683886 44.847618788309 46.690441476584  48.88478044251 44.863321140722 46.693558313447 48.889452474302 
44.959572018889 46.713400271391 48.919637788095 44.982680008479 46.717813738285 48.926149199514 45.069793031532 46.735036319404 48.951923828476 
45.110591548965 46.742327771976 48.962368364639  45.18624388528  46.75588866522  48.98182045913  45.25253898781 46.767567507917 48.998436581402 
45.308585556088 46.778422392163 49.014545304243 45.391865221399 46.794905364257 49.039224086598  45.44467343893  46.80666050507 49.057609997107 
45.510002276801 46.821806607145 49.081623368222 45.577060108857  46.83846483789 49.108606168811 45.611265923265 46.847323423703 49.123128780009 
45.689332730412 46.868598406505 49.158493847522 45.694164830526 46.869965342463 49.160788013704 45.707284025118 46.873977041451 49.167647711963 
45.762901002063 46.891534521107 49.197884484311 45.802828852422 46.904941462978 49.221276669263  45.82744866217 46.913395998086 49.236094703308 
45.840562996884 46.917779561494  49.24373597068 45.901409924447 46.939914913021 49.282963032125 45.950145592491 46.956378711732 49.311724084025 
45.988455831328 46.970195775978 49.336170655828 46.070500497378 46.997446646815 49.383611550689 46.085857188997 47.002698022512 49.392807789639 
 46.18366834363 47.032872159861 49.444506525998 46.191517926977  47.03522540288 49.448512021458 46.290243616875 47.061922296123 49.492798712537 
46.306967255219 47.066387863134 49.500181463527 46.398555592306 47.087040273737 49.532625324167 46.420807943299 47.091897920847 49.540171715562 
46.510916774196 47.108233016333 49.563724923821 46.532817125035 47.111884504668 49.568780150548 46.631103252081 47.124926062982 49.584440384737 
46.646050561603 47.126513792424 49.585991095351 46.756667940511 47.134200170394   49.5889327555 46.766077548196 47.134865760213 49.589207668233 
46.767494639438 47.134912648775 49.589137025526 46.889782859158 47.136034460352 49.576898975309 46.924435133226 47.135081997681  49.57076315517 
47.019469671402 47.130049786331  49.54885293392  47.13528544869 47.119860227966 49.513631192527 47.151881040563   47.1180940001 49.507941218037 
47.174015741044 47.115217493728 49.499258391868 47.277961272983 47.101702024817 49.458468192472  47.36430214618 47.088948391389 49.421378967809 
47.386060009962 47.085527004725 49.411596757138 47.402856116381 47.082648384936 49.403546608972 47.486125051242 47.068639746275 49.364188234274 
47.569431411787 47.052963598076 49.321323291966 47.577661166472 47.051359522623 49.316972262513 47.585353229917 47.049685758288 49.312539041528 
  47.6649831095 47.032202780221 49.266318154981 47.753423483619 47.011139395895  49.21152624538 47.754875676737 47.010773422455 49.210584321365 
47.756181579132 47.010429733498 49.209706657765 47.840211777744 46.987970256787 49.152508994516 47.902389606473 46.970628438946 49.108667328932 
47.919793039419   46.9656821725 49.096202232844  47.94811712901 46.957345704906  49.07531375199 47.989675424918 46.945065598133 49.044563453773 
48.047350230651 46.927697220514 49.001203405553  48.06228632645 46.923229363326 48.990037519984 48.068019092761 46.921397340334 48.985505750134 
48.141653852363   46.8965986945 48.924635976004 48.173938593274 46.884656531447 48.895702148018 48.225759289514 46.864935406899 48.848099503091 
 48.27917771856 46.843354660429 48.796400606783   48.3118092175 46.830135606505 48.764743671728 48.377725148249 46.801782153278 48.697329273887 
48.395181042614 46.794336414527 48.679608528778 48.468937488737 46.760580445877 48.599912075709 48.474253135765 46.758111071059  48.59409152016 
48.512227731524 46.739003691052 48.549430277057 48.545270060083 46.722297191555 48.510399984675 48.549619267609 46.719909985408 48.504867336131 
48.607566088279 46.686667176809 48.428135367781 48.622027902359 46.677677001775 48.407528318248 48.662280562927  46.65134644629 48.347425104254 
48.698096026581 46.626599825479 48.291178009992  48.71493652058 46.614524271319 48.263807176022 48.756526181727 46.584379736263 48.195534287697 
48.769973527984 46.574567438092 48.173321684577 48.774970062809 46.570767524409 48.164744816567 48.824076180636 46.530565858549 48.074452930091 
48.841573617939 46.514564871303 48.038759506429 48.872075158792 46.481369693209 47.965402936436 48.891741652317 46.455483417647 47.908689585544 
 48.90988824647 46.426364437826 47.845368301045 48.922891211578 46.396422080529 47.780931609487 48.935256569299  46.35465678518 47.691740493324 
48.937808602401 46.343221894322 47.667420387941 48.940984296672 46.321644563634 47.621724716067 48.945882460286 46.290970231025 47.556717971343 
48.947398891158 46.273103402861 47.519013110829 48.949223783019 46.240662601763 47.450663200795 48.949843339446 46.195953323033  47.35669089816 
 48.94983790922 46.190940830907 47.346164317361 48.949708258007 46.180413286976 47.324069857325 48.949101393975 46.140741293961 47.240823218035 
48.948974354348 46.122903186953 47.203374812125  48.94896811844 46.089718654842 47.133681449074 48.950678807272  46.05113670235 47.052447530775 
48.951444268515 46.037436818848 47.023583703479 48.955726252077 46.002764864041 46.950254694227 48.957521391789 45.985035520258 46.912805316642 
 48.95875588858 45.978012528038  46.89790831147 48.967109745268  45.93260759906 46.801551981055 48.974276348875 45.905336867803   46.7434227557 
48.981231720437 45.880459769443 46.690345843539 48.996667629414  45.83790385151 46.599127818309 49.000124571625  45.82891345602 46.579833645286 
49.018936021882 45.786015651741 46.487494748188 49.022586670853 45.777498330504 46.469171007758 49.023351274841 45.775824959961 46.465565348221 
49.047566512008 45.725073491059 46.356087299008 49.052013295404 45.715817204379 46.336116572409 49.074235597693 45.671264929384 46.239895901569 
49.080048452608 45.659068041504 46.213586299283 49.101867676881 45.611733919048 46.111571300345 49.103938205171  45.60676424353 46.100886894622 

POLYGONS 1 394
393 0 1 2 3 4 5 6 7 8 9 10 11 12 13 14 15 16 17 18 19 20 21 22 23 24 25 26 27 28 29 30 31 32 33 34 35 36 37 38 39 40 41 42 43 44 45 46 47 48 49 50 51 52 53 54 55 56 57 58 59 60 61 62 63 64 65 66 67 68 69 70 71 72 73 74 75 76 77 78 79 80 81 82 83 84 85 86 87 88 89 90 91 92 93 94 95 96 97 98 99 100 101 102 103 104 105 106 107 108 109 110 111 112 113 114 115 116 117 118 119 120 121 122 123 124 125 126 127 128 129 130 131 132 133 134 135 136 137 138 139 140 141 142 143 144 145 146 147 148 149 150 151 152 153 154 155 156 157 158 159 160 161 162 163 164 165 166 167 168 169 170 171 172 173 174 175 176 177 178 179 180 181 182 183 184 185 186 187 188 189 190 191 192 193 194 195 196 197 198 199 200 201 202 203 204 205 206 207 208 209 210 211 212 213 214 215 216 217 218 219 220 221 222 223 224 225 226 227 228 229 230 231 232 233 234 235 236 237 238 239 240 241 242 243 244 245 246 247 248 249 250 251 252 253 254 255 256 257 258 259 260 261 262 263 264 265 266 267 268 269 270 271 272 273 274 275 276 277 278 279 280 281 282 283 284 285 286 287 288 289 290 291 292 293 294 295 296 297 298 299 300 301 302 303 304 305 306 307 308 309 310 311 312 313 314 315 316 317 318 319 320 321 322 323 324 325 326 327 328 329 330 331 332 333 334 335 336 337 338 339 340 341 342 343 344 345 346 347 348 349 350 351 352 353 354 355 356 357 358 359 360 361 362 363 364 365 366 367 368 369 370 371 372 373 374 375 376 377 378 379 380 381 382 383 384 385 386 387 388 389 390 391 392 

CELL_DATA 1
FIELD FieldData 6
ClosedSection 1 1 int
1 
SectionArea 1 1 double
        35.8549 
SectionLength 1 1 double
        22.3377 
SectionMinSize 1 1 double
        2.64292 
SectionMaxSize 1 1 double
        4.29846 
SectionShapeFactor 1 1 double
       0.614853 
