# vtk DataFile Version 4.2
vtk output
ASCII
DATASET POLYDATA
POINTS 460 double
37.178012505165 34.638358228247 20.841611531823 37.211603903457 34.617709665752 20.818298835092 37.269910061323 34.584046914197 20.780354131485 
37.325465394338 34.550060364934 20.741987138339 37.364061116502 34.528058601478 20.717195147955 37.444222245829  34.47988860969 20.662841234168 
37.460621957134 34.470644919108  20.65242846383 37.546748304291 34.419075967824 20.594244587376 37.558965129094 34.411751310495 20.585980090386 
37.561064001319 34.410412074408 20.584466681235 37.660017868026 34.351276439198 20.517748808521 37.671708203119 34.343745545108 20.509236549705 
37.762241565675 34.290697285379 20.449417115761 37.781788768532 34.278678190853 20.435847186981 37.864698049084 34.231420207906 20.382596178385 
37.893810526661 34.214489032028 20.363507638065 37.966075262384 34.174927567741 20.318978640646 38.007393363323 34.151869880355 20.293011871245 
38.060616447941 34.123490073929 20.261092491637  38.12098171301 34.090429618625 20.223880379181  38.14474438579 34.077812444172 20.209691312113 
38.207850814598   34.0432059771 20.170737629381 38.221956332877 34.035390567574 20.161937928822 38.228024709044 34.031927974393 20.158036116014 
38.293932239749 33.995523514481 20.117050314524 38.346401790903 33.965650562096 20.083390068076 38.366928984724 33.954358598993 20.070678513531 
38.405017462308 33.933258341156 20.046920943673 38.444977702841 33.910298005674  20.02104333114 38.464420444873  33.89899712541 20.008302692793 
38.528943545308 33.863701223675 19.968575728793 38.576696648922 33.836922751474 19.938414718274 38.615218190604 33.816741288887 19.915727846917 
38.685454997126 33.780250145306 19.874716650241 38.705305626772 33.770883549688 19.864221371441 38.791247119806 33.732069053342 19.820793404472 
 38.80231991713 33.727709360946 19.815940088224 38.896602826666 33.690979931172 19.775069241511 38.911355815232 33.685973287542 19.769530972087 
39.002570474462  33.65485478068 19.735099840372 39.028795383214 33.647326902964 19.726842574956 39.113207132776 33.625098967486 19.702581654511 
39.145738301778 33.617684489738 19.694564734535 39.230624340118  33.60146565063 19.677265583864 39.260584837557  33.59613798286 19.671618981294 
39.351852265806 33.582968993888 19.657959456311 39.375719627764 33.579311819047 19.654140468476 39.480100638138 33.565911090834 19.640439695573 
39.491822855241 33.564017628794 19.638451471389 39.533627312711 33.558896508714 19.633248825355 39.602989857666 33.549425561907 19.623489537045 
39.627512848315 33.547929199382 19.622182327268 39.710025790476  33.53922663446 19.613539741025 39.789579031554 33.535022394727 19.610051280286 
39.815742063385 33.532867679172 19.608010621195 39.879762783855 33.530656977238 19.606560256965 39.920246187403 33.528626115566 19.604910714651 
39.935212133556  33.52851424325 19.605040226355 40.025616183082 33.524829253052 19.602340386953 40.076106313764 33.524715275182 19.603082164523 
40.132816022124 33.522397953163 19.601381914351 40.216703267641 33.522136398531 19.602530816137 40.242377026372 33.521346599948 19.602061135552 
40.353807935942 33.522431316963 19.605244515505 40.355719039304  33.52242166002 19.605266410048 40.370074323086 33.522832234891 19.605989916659 
40.471600769839 33.524557711214 19.609743381289 40.485013823323 33.525193271842 19.610710931158  40.58892419792 33.529628307294 19.617641074817 
40.609768749763 33.530949584474 19.619530710164 40.707038551888  33.53816249492 19.629560428225 40.727626655346 33.540088878088  19.63214583823 
40.824511861209 33.550234876799 19.645562991244 40.838664957998 33.551984140322 19.647832093335 40.938028332998 33.564877143079 19.664470886347 
 40.94086070046 33.565284720485 19.664991534468  40.95594538835 33.567542132459 19.667864772155 41.036283254175 33.578389019843 19.681806643086 
41.053709199428 33.580826021922 19.684928210139 41.125966826153  33.59044552639 19.697309968353 41.195223912333 33.604137436489 19.714352282872 
41.217177596178 33.608656305452 19.719961276579 41.244832578285 33.618467743153 19.731793340758 41.309449109072 33.638298805694 19.755859416305 
41.359491667808 33.657255703971 19.778661748081 41.404402891834 33.674942457812  19.79990551184 41.448480056712  33.69387571038 19.822577257635 
41.499460979557 33.712122057104 19.844573595728 41.562700834551  33.73746766145 19.874997127298  41.59391063766 33.749946190832 19.889976989198 
41.618117698787 33.761607334546 19.903889820803 41.684852940147 33.788300348015 19.935933020908 41.757656634515 33.820765654837 19.974760768918 
41.772304454979 33.827230543041 19.982495224145 41.785886606675  33.83355272144 19.990046099381 41.861634775749 33.862776915906  20.02517427089 
41.936123672248 33.892436743439 20.060784754965 41.950318007628 33.898239226306  20.06774484576 41.966314918559 33.905055102792 20.075908799428 
42.039941031648 33.931863485147 20.108204739335 42.103985773936 33.956073132204 20.137327699629 42.128392849842 33.965575348195 20.148745739836 
42.159201344574 33.977663521989 20.163266948725 42.216552843532  33.99719428806 20.186859816922 42.261722533512 34.013210637182 20.206175106234 
42.302527260465  34.02779949456 20.223763010625 42.359694310607 34.049056136662 20.249349823939 42.385860580406   34.0577114406 20.259818281254 
42.402893600482 34.063774774287 20.267129341469  42.46957787721 34.088227537266 20.296579302793 42.519962084185 34.108542578264 20.320959152168 
   42.555712924 34.124046805713  20.33951884659 42.627251626038 34.157448072283  20.37940777261 42.645622914979 34.166821160637 20.390571947954 
42.731749567503 34.212356828051 20.444754898963 42.739872934806 34.217095964854  20.45037946399 42.828327658391 34.271079133353 20.514377917776 
42.835325133511 34.275769208792 20.519926228146 42.915889983517 34.332420975858 20.586876187006 42.930039120296 34.343266919255  20.59967165097 
42.995548725217 34.395329516049 20.661050634365 43.023583074929 34.418786918904 20.688680002554 43.069908773083 34.458852258226 20.735844132163 
43.115274795499 34.499094139394 20.783195945183 43.140083057404 34.522605822983 20.810832302075 43.204112769565  34.58453900293 20.883607647955 
43.206164548881 34.586723898283 20.886171452918 43.211257278294 34.592219740987 20.892619215956 43.269359637242 34.651267057342 20.961952553459 
43.290902655757 34.674120104113 20.988770252726 43.327662805939 34.716734988823 21.038719126824 43.371500422484 34.771148914173 21.102443996512 
43.380772919233 34.783518252636 21.116917907527 43.397058812322 34.807128765761 21.144521158149  43.42953170549 34.851488580755 21.196415032373 
43.445026824721 34.875373247434 21.224321842658 43.472730838053 34.920931734059 21.277520267467 43.508186199628 34.987117122724 21.354721709537 
43.510563607115 34.991922963893 21.360324036269 43.513930644606 34.999725482038 21.369411160376 43.543384050368 35.064114923453 21.444430524695 
43.559287002756 35.103717377248 21.490532587543 43.571966167101 35.137400459349 21.529729130865 43.590443897283 35.192794787119 21.594149673886 
43.597125604812 35.211414731765 21.615811785849 43.600465328771 35.222516172079 21.628715860289 43.618301851149 35.285466032142 21.701868364353 
43.630224404627 35.339792812491 21.764940141274 43.634225027054 35.358927207617  21.78715116845 43.639915750506 35.392390628811 21.825972599767 
43.647031469288 35.431146441542 21.870942900338 43.650678400432 35.453941461687 21.897383782975 43.657896652525 35.501378252889 21.952401249803 
 43.66585756975 35.568022635339 22.029658069422 43.666070167476 35.569879902993  22.03181092775 43.666258030356 35.572295160542 22.034609048795 
43.671681264502 35.637536869643 22.110198821498 43.674871461168 35.699165930029 22.181569495454 43.675231394555  35.70599961857 22.189483482068 
43.675409674704 35.712096100862 22.196541250388 43.677387616322 35.775473249889 22.269913788362 43.677580614423 35.837384054733 22.341558626501 
43.677626179294 35.847182300332 22.352897678105 43.677089941979 35.860889402257 22.368749884504 43.674830718888  35.92023594153 22.437384991632 
43.672175877371 35.960034308309 22.483392639838 43.669561891866 35.994274118402 22.522968784478 43.664896048958 36.042258456084 22.578414217534 
43.662257892322  36.06828326863 22.608483772322 43.659649510888 36.088001388814  22.63125590956 43.652398169324 36.141360906455  22.69287661571 
43.640074027489 36.209390845699 22.771385755928 43.639593674784 36.212024089215  22.77442456175 43.639146354959 36.214122064828 22.776844541716 
43.624518245527 36.281497744699 22.854556723465 43.611129084865 36.338531783776 22.920323278407 43.608509792054 36.349585288265 22.933068769352 
43.605086446656 36.362732135285 22.948222706164 43.590621594796 36.417352109638 23.011177157589 43.576832600525 36.464180607232 23.065127219027 
43.570417403646 36.485760384386 23.089987742786 43.562587498506 36.509837641296 23.117713802365 43.548000544106 36.554302287896 23.168914672044 
43.532927733951 36.597082634323 23.218158108262  43.52345254077 36.623386280675 23.248432015427 43.513901065112 36.648565189743 23.277403087242 
 43.49752084058 36.691733896087 23.327073299787 43.478743861066 36.739382205836 23.381885714589 43.471165765349 36.758224373762 23.403558228913 
43.464594114448 36.774186070962 23.421914956195 43.444799465028 36.822144439082 23.477068552576 43.421145547675 36.878313085195 23.541656079331 
 43.41987362012 36.881273120979 23.545059343044 43.418931796966 36.883391020751 23.547493821932 43.392989353386 36.941388227925 23.614157709652 
43.382076887872 36.964576971036 23.640802265324 43.360925351473  37.00964612382 23.692589061084 43.342710619958 37.046117904998 23.734478030186 
43.321430802995 37.089208011216 23.783972507381  43.28396582893 37.159960941765  23.86519758783 43.279619218926  37.16814001273 23.874586973424 
43.271974979842 37.181688046908 23.890132115719  43.23560577613 37.245804484431 23.963696588001 43.210480603296 37.287736140251 24.011783998763 
43.190557418825 37.320434608733 24.049277030421 43.158178820246 37.370986079488 24.107213544831 43.142199970039  37.39588616127  24.13575074748 
43.131396740375 37.412083601294 24.154307047672 43.090357775494 37.472838594724 24.223900943848 43.041236012273 37.541831079094 24.302887177477 
43.029626548399 37.558022381443 24.321422424426 43.017161047921 37.574265445199 24.340002755605  42.96422271616 37.641085688944 24.416409290468 
42.914961678455 37.699544289346 24.483203590262  42.90349538335 37.712826875759 24.498375427646 42.885882283876 37.732011049207 24.520270058047 
42.840269621139 37.781736755632 24.577022021229 42.812786769059 37.810280857895 24.609576922599 42.777081940999 37.847412796696 24.651927163513 
42.722112468133 37.903691057875 24.716099656637 42.711832750478 37.914193297641  24.72807468481 42.660631799148 37.965211809934 24.786225949294 
42.642270568148 37.983468190979 24.807034018079 42.638630068865 37.986982737003 24.811037960728 42.568194009535  38.05331914587 24.886581838367 
42.551971515731 38.067939280801 24.903219150323 42.490499451407 38.122963087456 24.965827503458 42.458818212637 38.150127262667 24.996712942873 
 42.41091007203 38.191823515666 25.044133720639 42.360625458304 38.233450454001 25.091433167415 42.334380861286     38.25529045 25.116251685942 
42.280852110633 38.296982360629 25.163570181086 42.262760463755 38.311064372841 25.179552448679 42.248763567072 38.321231209959 25.191075036819 
42.192477412225 38.362355171679 25.237688603451 42.139376067544 38.398844932545 25.278994708195 42.123210618011 38.409833092932 25.291430185129 
42.098727595071  38.42542623673 25.309050498163 42.051015117574 38.456271932224 25.343918691778 42.022329758478  38.47408289768 25.364032691415 
41.973942997289 38.503339537507 25.397050405406 41.895713880852 38.548369617899 25.447804330283 41.893010077158 38.549885378327 25.449511541001 
41.888666568138 38.552203159675 25.452118455415 41.809622498365 38.595028301361  25.50030678346 41.756024959039 38.622806897092 25.531523978934 
 41.72321284307 38.639467534547 25.550235441859 41.677153842374 38.661895455702 25.575391427471 41.634865539819 38.682912415197 25.598979933946 
41.601898547465 38.698684400002 25.616660392261 41.544894583176 38.725693323271  25.64692799971  41.47443245317 38.757988500056 25.683079838852 
41.453286106341  38.76790601802 25.694190209204 41.434763644437 38.776246861846 25.703521498255 41.360658124711 38.809805594588 25.741072445582 
41.276666150083 38.846285372299 25.781832473704 41.265699222145 38.851151176305 25.787273280473 41.255425079517 38.855554989993 25.792191472417 
41.170565557042 38.892752305855 25.833766804311  41.08477389676 38.929422749011 25.874716323948 41.075102991392 38.933677899905 25.879472925633 
41.064788375518 38.938063653986 25.884369519151 40.980923085884 38.973623067295 25.924066718761 40.895559471508 39.007855812424 25.962202807389 
40.889572423742 39.010334247439 25.964967186436   40.8841759305 39.012497585522 25.967377162711 40.800163535125 39.044853820933 26.003365186543 
40.734168962425 39.069721295662  26.03099919659 40.715877077092 39.076178952828  26.03815530313 40.676416551015 39.089817872764 26.053255074208 
40.630519725601 39.106167368479 26.071380077562 40.612712277785 39.112358888485 26.078236600019 40.541468740978 39.135109500248 26.103330206975 
40.498627343973 39.148966342816 26.118623650376 40.445225578716  39.16421783299 26.135348207837 40.378795274317 39.184119757369 26.157228678348 
40.345373703915 39.192219208233 26.166022823271 40.255024607861 39.213249097224 26.188794658442  40.24896750786 39.214730959049 26.190404617947 
40.244463804776 39.215774064521 26.191533740166 40.150143304388 39.234958263061 26.212101072302 40.085958693175 39.244647313423 26.222202341892 
40.037675392648 39.253376699933 26.231468267226 39.938116756778 39.261705098067 26.239382923063 39.912891726197 39.263421594612    26.240932718 
39.898560053704 39.262884439715 26.240063144992 39.782572503703 39.263646852012 26.238938365749 39.694307686525 39.252514223464 26.224528676769 
39.646624188843 39.250333223797 26.221179778982  39.56396788082 39.235928484086 26.203080740369 39.525631094048 39.229168796051 26.194595242352 
39.484580074015 39.216077485234 26.178735996288 39.420003184252 39.197842173599 26.156517166201  39.39405892563 39.186541387444 26.142991270489 
39.325787771695 39.155706425987  26.10612854381 39.289143624806 39.135060118644 26.081603116889 39.242338819783 39.110883055742 26.052816178019 
39.181014718594   39.0734562002 26.008445701105 39.165126290574 39.065360549676 25.998802704911 39.141383457565 39.052485341063 25.983493023341 
39.082144650295 39.021288527909 25.946367865384 39.033834579597 38.997217038248 25.917677046222 38.991840561768 38.979908836111 25.896921810862 
38.952584072588 38.966198930386 25.880377795755 38.892406548938 38.946040821424 25.856010082552 38.803200948577 38.919390999531 25.823628040617 
38.788214605433 38.915441817326 25.818798834191 38.779198930559 38.913010371531 25.815829226112 38.680049814521 38.888221096604 25.785428098176 
38.613648087765 38.871693572974 25.765153897332  38.57073421899  38.86153602192 25.752657283919 38.481782776662 38.840418649591 25.726681639952 
  38.4582045275 38.835339586136 25.720396293318 38.448179963103  38.83323717584 25.717789978571 38.342807444738 38.810658174093  25.68983883028 
38.291060021276 38.799904361131 25.676499385005 38.225992804353 38.784343066043 25.657366369589 38.149569945153 38.766239975916 25.635095562691 
38.109151543367 38.754554218221  25.62087373113 38.018732041577 38.729833510733 25.590703002813 37.996793198025  38.72348813047  25.58298067673 
37.894590595764 38.695109707531 25.548373447561 37.890755496261 38.694113316777 25.547154089613 37.868334833386 38.688242415957 25.539972480936 
37.791052408936  38.66887706379 25.516226145036 37.776865809463 38.665050309995 25.511552448016 37.701900968193 38.645522276545 25.487657964691 
37.651980124962 38.631367963571 25.470415160069 37.617384171875 38.622134952827  25.45913233085 37.592544209701 38.614073678487 25.449374218543 
37.520590539322 38.593233606684 25.424013584754 37.454114486805  38.56716738762 25.392700179021 37.413059086957 38.552335901011 25.374827173099 
37.344799783682  38.52425463943  25.34115115804 37.308862478536 38.509810150822 25.323814538013 37.250917524998 38.484301713083 25.293294201833 
37.212020456456  38.46655802966 25.272088628281 37.169536813477 38.446264907437 25.247870852266 37.108958881784 38.418218235322  25.21436777989 
37.086900840806 38.407447550726 25.201522549496 36.998856456864 38.364444810099 25.150237448449 36.998010998705 38.363995406988 25.149702781784 
36.994659792984 38.362193698389 25.147559905129  36.90367203001 38.316639522218 25.093271420746 36.878537080044 38.304425792821  25.07870309605 
36.804281516275 38.266829942862 25.033913300329 36.749602989105 38.240100085007 25.002036091525 36.703410408631 38.215654482982 24.972949000283 
36.636735241463 38.182925484462 24.933922162048 36.602681965921 38.162575413243 24.909784363352 36.552167042871 38.136936695689 24.879241838463 
36.513493760911 38.115138133063 24.853347941397  36.48009845705 38.097666265611 24.832552107165 36.445864469762 38.077804205011 24.808975894083 
36.390484819286 38.047160991704 24.772558124769 36.373594478317 38.037068578839 24.760587192661  36.30730261211 37.999255017374 24.715683269108 
36.297270229006 37.993734859152 24.709121894179 36.294470199036 37.992279196501 24.707388989895 36.216032426791 37.949140397196 24.656112676057 
36.195026231374 37.938191721284  24.64307967985 36.133225248297 37.903624277767 24.602009784862 36.097323227397 37.883551908593 24.578161345149 
36.050539515331 37.855532532116 24.544928550561 36.008827789275 37.829485594162 24.514065972638 35.966289050521 37.800247571885 24.479496448341 
35.932502824057 37.776443720945 24.451366650698  35.87686288473 37.732076038137 24.399062794793 35.862920365629 37.720882818639 24.385869047641 
35.822864189572 37.685682844289 24.344443472347 35.797908965661 37.663859216784 24.318757945021 35.789027578083  37.65524527864 24.308636448721 
35.739739835536 37.607631418562 24.252686121778 35.708075523173 37.573814672555 24.213006391568 35.686293896237 37.549953989155  24.18501855379 
35.655395029849 37.512464395042 24.141101948806 35.636153502936 37.489242693889 24.113897477204 35.622700626063 37.470927412876 24.092470746942 
35.591121208017  37.42587059747   24.0397857833 35.552215771168 37.361471469641 23.964591654345 35.551169106497 37.359486982491 23.962277148575 
35.549377236133 37.355510931782 23.957645164783 35.520516585314 37.292067282353 23.883730502108 35.504596713653 37.249799624844 23.834544045284 
35.496905014144 37.226685556789 23.807663979344  35.49126693178  37.20695148023 23.784730682901 35.477786192622 37.160316600157 23.730532801166 
35.461284908786 37.097932773421 23.658058400126 35.459560678546 37.090356009527 23.649260939455 35.458536272934 37.084663638073 23.642656156038 
35.447152805037 37.018972227365 23.566442866353 35.441649927369 36.964750561034 23.503603809113 35.440194765296 36.946487094286 23.482444642617 
35.439586906823 36.914857345126 23.445833039408 35.439817655453 36.873310908139 23.397760625981 35.441048539925 36.851431972346 23.372464215832 
35.444827464913 36.799927217088 23.312929704335 35.450841794127 36.746714585091 23.251457565277 35.453653408103 36.726087459781 23.227637068734 
35.467437416779 36.648658511966 23.138276912781 35.467655642964 36.647532133219 23.136977274084  35.48932053783 36.558338734996 23.034139985323 
 35.49090516877 36.553008829136   23.0279997834 35.493662762516 36.543804438761 23.017396430114 35.516409814353 36.469117958173 22.931364877051 
35.538979986565 36.398572548525 22.850122197901 35.539094997986 36.398225042794 22.849722063856 35.539235328765 36.397801703273 22.849234615135 
35.562970288535 36.329722064391 22.770865414029 35.577242214077 36.289418607618  22.72447430879 35.582576839305 36.274946583837 22.707819985841 
35.601851261769 36.225811552112 22.651295784469 35.610208189453 36.204434596844 22.626703559942 35.629925468491 36.155330318358  22.57022260847 
35.646698704658  36.11190805092 22.520265782509 35.659525966492 36.078725738119 22.482090073151  35.68742842467 36.007906572008 22.400622879126 
35.690836685966  35.99925207821 22.390667110197 35.703034810919 35.970061016388 22.357099081415 35.724621226043 35.920254143124 22.299837449489 
35.731510500775 35.905360792577 22.282722479971 35.761349277482   35.8402340151 22.207875868776 35.779491265823  35.80367512693 22.165884843101 
35.801080391733 35.761347093753 22.117277568302 35.833970894378 35.703620406553 22.051046946558 35.848458986284 35.679452244171  22.02333090538 
35.868073382772 35.650038993525 21.989634095202 35.900485592821 35.603642992064 21.936506758379 35.947543910633 35.541348532265 21.865235591119 
35.953003401041 35.534379776004 21.857266005791 35.966591610833 35.518167121408  21.83874029037 36.009920229669 35.466907802286 21.780174149737 
36.026560541699 35.448645237486 21.759329146891 36.069953823539 35.402901435542 21.707146531553 36.108069995896 35.365770008705 21.664838608419 
 36.13452127286 35.340581770172 21.636149171094 36.193664168493 35.288471692519 21.576872202466 36.204074149927 35.279367108153 21.566516757141 
36.253436702057 35.239296513222 21.521002313456  36.27845553528 35.219115881997 21.498082756353 36.284065336969 35.214942343039 21.493350321372 
36.357681049001 35.159533351964 21.430506374209  36.38114653975 35.143204113103 21.412016664856 36.439484492196 35.101580428545 21.364860336391 
36.482047211514 35.072949116672 21.332465457004 36.516346675208 35.049247887128  21.30563254924 36.584694244628 35.005056260349  21.25567787204 
36.585415027798 35.004576850502 21.255135584278 36.587857911238 35.003032109099  21.25339032266  36.65484335694 34.960888609653 21.205782112796 
36.671801653063 34.950322880036 21.193849180489 36.729148596226 34.913104113393 21.151772954963  36.74855886215 34.901042568794  21.13815153459 
36.811443069682 34.860456093334 21.092274103623 36.828846896185 34.850041646355 21.080523940823 36.902528088476 34.804145114898 21.028688686115 
36.913503419297 34.797730141325 21.021455367883 36.999749934434 34.744960757707 20.961884463159 37.087935005292 34.691782611837 20.901874094206 
 37.10269656212 34.682556962761 20.891453854759 
POLYGONS 1 461
460 0 1 2 3 4 5 6 7 8 9 10 11 12 13 14 15 16 17 18 19 20 21 22 23 24 25 26 27 28 29 30 31 32 33 34 35 36 37 38 39 40 41 42 43 44 45 46 47 48 49 50 51 52 53 54 55 56 57 58 59 60 61 62 63 64 65 66 67 68 69 70 71 72 73 74 75 76 77 78 79 80 81 82 83 84 85 86 87 88 89 90 91 92 93 94 95 96 97 98 99 100 101 102 103 104 105 106 107 108 109 110 111 112 113 114 115 116 117 118 119 120 121 122 123 124 125 126 127 128 129 130 131 132 133 134 135 136 137 138 139 140 141 142 143 144 145 146 147 148 149 150 151 152 153 154 155 156 157 158 159 160 161 162 163 164 165 166 167 168 169 170 171 172 173 174 175 176 177 178 179 180 181 182 183 184 185 186 187 188 189 190 191 192 193 194 195 196 197 198 199 200 201 202 203 204 205 206 207 208 209 210 211 212 213 214 215 216 217 218 219 220 221 222 223 224 225 226 227 228 229 230 231 232 233 234 235 236 237 238 239 240 241 242 243 244 245 246 247 248 249 250 251 252 253 254 255 256 257 258 259 260 261 262 263 264 265 266 267 268 269 270 271 272 273 274 275 276 277 278 279 280 281 282 283 284 285 286 287 288 289 290 291 292 293 294 295 296 297 298 299 300 301 302 303 304 305 306 307 308 309 310 311 312 313 314 315 316 317 318 319 320 321 322 323 324 325 326 327 328 329 330 331 332 333 334 335 336 337 338 339 340 341 342 343 344 345 346 347 348 349 350 351 352 353 354 355 356 357 358 359 360 361 362 363 364 365 366 367 368 369 370 371 372 373 374 375 376 377 378 379 380 381 382 383 384 385 386 387 388 389 390 391 392 393 394 395 396 397 398 399 400 401 402 403 404 405 406 407 408 409 410 411 412 413 414 415 416 417 418 419 420 421 422 423 424 425 426 427 428 429 430 431 432 433 434 435 436 437 438 439 440 441 442 443 444 445 446 447 448 449 450 451 452 453 454 455 456 457 458 459 

CELL_DATA 1
FIELD FieldData 6
ClosedSection 1 1 int
1 
SectionArea 1 1 double
        53.0053 
SectionLength 1 1 double
        26.2294 
SectionMinSize 1 1 double
        3.74036 
SectionMaxSize 1 1 double
          4.549 
SectionShapeFactor 1 1 double
       0.822239 
