# vtk DataFile Version 4.2
vtk output
ASCII
DATASET POLYDATA
POINTS 483 double
53.381492475664 32.365524764733 40.944149010235 53.390084999918 32.362332546052 40.943530684369 53.482782472144 32.323985714624 40.934615134324 
53.508083573915 32.313642162551 40.932252308648 53.593506972753 32.273411748372 40.921226246383 53.637369369484  32.25284304092 40.915615474921 
53.706288000107 32.215903912627 40.904145714305 53.764908129978 32.184893196104 40.894624559829 53.816084005487 32.154265981562 40.884270927941 
53.888415359685 32.111862845705 40.870145528011 53.912739921154 32.096317068221 40.864656702471 53.965539161397 32.063439482111 40.853240139457 
53.994838905601 32.044932907366 40.846754352518 54.010990591195 32.034696354949 40.843159101807 54.069618732712 31.995484184743 40.828928571318 
54.111023675125 31.967485565872 40.818702901438 54.147092098269 31.941831928453 40.809069399817 54.229972229806  31.88624444281 40.788863335437 
54.243452295067 31.876838463982  40.78536731332 54.257251125417 31.867944390248 40.782210382857  54.35877756974 31.803775163019  40.75971229116 
54.407328747632 31.774668443402 40.749860780182 54.469863961208  31.73883442734 40.738123019483 54.532307186189  31.70549394948 40.727804414962 
54.581688810573 31.680973045993 40.720704208766 54.623171707547 31.661891963595 40.715611354464 54.690760283722 31.631496025128 40.707711586246 
54.693193036135 31.630394324867 40.707422855999  54.70176528556 31.626679673744 40.706501603601 54.772262970824 31.596302891537  40.69902423443 
54.782411695786 31.592356819687 40.698193005407 54.873019800416 31.557624501594 40.691057981397 54.893203013512 31.550685720072 40.689926932395 
54.990351643739 31.518563368973  40.68521588384 55.014454610592 31.511603951884 40.684627301473  55.12067987304 31.480342537832 40.681694320012 
55.135884535548 31.476743817491 40.681777586558 55.244984718177  31.44930771864 40.681448238537 55.256565387254 31.446450427365 40.681444852004 
55.258263384025 31.446001957954 40.681427398494 55.375695484954 31.421585225914  40.68401049778 55.392182277846  31.41786068407 40.684202813346 
55.500373019486 31.397469227526 40.687790948977 55.521106719676 31.392865079591 40.688078646008 55.647763892199  31.37090569923 40.693377705733 
55.655173536092 31.369243724656 40.693470997279 55.665072014662 31.367169472777 40.693679459963 55.783221777829 31.350363047647 40.700735032234 
55.846372048162 31.341225180285 40.704417197094 55.892709558543 31.337012662957 40.708550633979 55.987671416454  31.33011275313  40.71801686094 
55.992102848742 31.329977865576 40.718566066784 56.033793227952 31.327995039335 40.723322945848 56.094030697411 31.325073537016 40.730163564337 
56.099240472533 31.324639554537 40.730651055546 56.144325736149  31.32314189451 40.736166683451 56.202664425608 31.321187386449 40.743294176351 
56.210833094757 31.321373719107 40.744556382928 56.310862985272 31.322698294536 40.759463051579 56.341867696279 31.325048698801 40.765197591684 
 56.42671124669 31.331528295084 40.780917446854 56.491592153731 31.340509560162 40.795251085376 56.545847662142 31.347986498976 40.807218104435 
56.665285007615 31.371237011192 40.837462484208 56.676160839658 31.373418347814 40.840253360374 56.686556830883 31.376226802818 40.843336564783 
56.801855062811 31.408450219831 40.878149197056 56.848809946814 31.424916638116 40.894246897822 56.910383829347 31.447011861909 40.915644876511 
 56.99043720488  31.48193513646 40.947023961638 57.010982800491 31.491230636032 40.955268326983 57.049610129191 31.511619718842 40.972441356586 
57.099459392732 31.538165822623 40.994737643353  57.14113952784 31.563527906453 41.015198636401 57.183049153091 31.589076054237 41.035798949115 
57.208076844415 31.606135236655 41.049136232789 57.266366801869  31.64684453076 41.080760810118 57.335293740688 31.699426991559 41.120708993549 
 57.34584294075 31.707679032101 41.126940390304 57.360993277398   31.7205787683 41.136491870969 57.419635168856 31.770108553366 41.173232271009 
57.458826042416 31.805861529403 41.199309254973 57.489476047213 31.834666970516 41.220188097237 57.532177579307  31.87786962502 41.251040273509 
 57.55759364339 31.903147794585 41.269153058929 57.574408128356 31.921116139646 41.281851035991  57.62348915932 31.974860646229 41.319660097983 
57.680569078457 32.042048649361 41.366321615346 57.693821868158 32.058128217232 41.377431089062 57.705683815837 32.074267022426  41.38837789746 
57.758791452228 32.144043916388 41.435964598396 57.794302190068  32.19539541833 41.470480170767 57.811371082336 32.219336210226 41.486644403077 
57.838243072335 32.261235961449 41.514509694426 57.856711573155 32.290072563476 41.533683765752 57.865565707605 32.305401333431 41.543739974955 
57.896806297796 32.358996393381 41.578940265746 57.915055049575 32.392565230829 41.600801222649 57.942703220263 32.441276883704 41.632688698013 
57.967340402876 32.489809680568 41.664047643309 57.994573549081 32.539686086901 41.696545404003 58.032975700999 32.623367788318 41.750038736758 
58.040733565525 32.639259170581 41.760263051733 58.059763520718 32.683173972084 41.788176693443 58.082079949609 32.734589967276 41.820863411771 
58.089954566853 32.755106582588 41.833760742428 58.118059256477 32.822188670004 41.876263845396 58.139776011294  32.87990593494 41.912484897195 
58.150158576115 32.905359971524 41.928572703907 58.168946803615 32.956175650526 41.960415683698 58.181242412146 32.989226624645 41.981137331604 
58.186577045169 33.005303643728 41.991125581749 58.210218232954 33.073415594186 42.033588973318 58.228224062596 33.133012791804 42.070364978553 
58.236916591685 33.159992393445 42.087089995019 58.252373188829  33.21444450018 42.120550410677 58.261808183764 33.247107831864 42.140644877393 
58.266196187057 33.264001235819 42.150968149332 58.285553236843 33.333767630358 42.193775922975 58.302041047843 33.397866437289  42.23292275655 
 58.30793601013  33.41960253766 42.246240542764 58.317326087467 33.455673293418 42.268285713088  58.32984726377 33.502182133019 42.296768791765 
58.338846840296 33.535281373312 42.317052047367 58.352957835316 33.585248020826 42.347745946669 58.368573775205 33.638128666144 42.380326326409 
 58.37881708059 33.672606536815 42.401577283097 58.388748259537 33.707279147712 42.422895949037 58.406343782366 33.763715098306 42.457798266235 
58.431375893677  33.84895137521 42.510293723027 58.436580721478 33.866749048074 42.521251874898 58.438830332197 33.875785005476 42.526759814065 
58.468599901482 33.975199231517 42.588068338706 58.478870606994 34.018579205681 42.614436097789 58.497116495472 34.086581472868 42.656073507234 
58.509397163631  34.14629424899 42.692106261536 58.521659506492 34.202138763991 42.725914686639 58.531560045877 34.266359454783 42.764199973985 
58.540841983415 34.319575129123 42.796077044033 58.548132844778 34.384634431672 42.834474936376 58.555254020787 34.436663178308 42.865364726119 
58.560856419361 34.504010434876 42.904837929135 58.566271452342 34.552628470588 42.933527498231 58.570525023961  34.62806062404 42.977453519115 
58.573996580753 34.665527385423 42.999463508254 58.577571729493 34.757630611741 43.052868627781 58.578885324153 34.776215218098 43.063728469902 
58.580873586026 34.858072005883 43.111024130051 58.581622435185 34.885582890181 43.126930919887 58.581499020473 34.892654539983 43.130975072558 
58.583600153393 34.992134025908 43.188408299982 58.582942393347 35.035715202556  43.21334615216 58.584582522924 35.091117242003 43.245398282744 
58.583596148397 35.168670790627 43.289801712049 58.583349555578  35.18029535952 43.296443416617  58.58288377699 35.190263102618 43.302102525937 
58.582038756681 35.266346415045 43.345681514201 58.580373613624  35.31897134557 43.375671190114 58.580786296503 35.360196378672 43.399407168593 
58.577205595777 35.447105639004 43.448817174484 58.577488936464 35.469896697992 43.461947299634  58.57618593588 35.500671089887 43.479438320837 
58.571831060345 35.572837762461 43.520271432875 58.567839384821 35.655113736247 43.566962189634 58.567178512028  35.66356637558 43.571723508774 
 58.56619811114 35.688160174186 43.585710324141 58.564356525412 35.754924337701 43.623795923598  58.56439219316 35.774426275015  43.63500191499 
58.560765513602 35.846248573435 43.675740214642 58.558838943003 35.899532216355 43.706071252123 58.556307090855  35.94092283442  43.72948592795 
58.550988086676 36.015644720096 43.771650284001 58.549950053688   36.0353604467 43.782827226151 58.548991946377  36.04941389477 43.790763338641 
58.543004881505 36.130214126612 43.836324320883 58.533802188312 36.212776855845 43.882442850796 58.532744535052  36.22549560236 43.889598299325 
58.530482871248  36.24104960742 43.898211912796 58.519984926458 36.317559828347 43.940671011339 58.509654638533 36.370649389495 43.969702151795 
58.503537480412 36.406500478815  43.98942817436 58.491019512789 36.461061566271 44.018995112215 58.484820246345 36.490919916846 44.035267590818 
 58.47998134921 36.508912192956 44.044917162616 58.463909409355 36.572557504254  44.07919903788 58.443281238227 36.640134938212 44.115095002506 
58.439720462671 36.652306596598 44.121582247374 58.433941299462 36.668636551184 44.130144094644 58.412644270559  36.73198103441 44.163514274249 
58.391490620911 36.783617796528 44.190180394648 58.379742759151 36.813662782091 44.205775403049 58.364936275889 36.844603803945 44.221452510148 
58.340946237942 36.896698362494  44.24798045345 58.307090889331 36.956795314197 44.277709455447 58.293695428303 36.981392026162 44.289942247134 
58.282175097889 36.999500577459 44.298713735326 58.239685885676 37.067128089804 44.331546945974 58.190591500338 37.135785946133 44.364037853343 
58.178363444752 37.152818828581  44.37209144643 58.147560574046 37.190316204808 44.389272042421 58.109487254048 37.237797031342 44.411158475025 
58.091464137522 37.257394775651  44.41986567934 58.032878175494 37.321025300736 44.448126868958 57.978871959187 37.373180108241 44.470444627064 
57.947994224676 37.402960746586 44.483182523828 57.866327939532 37.474246917597 44.512576794105 57.852080495132 37.486922770509 44.517842349792 
57.846264669262 37.491820609499 44.519832971082 57.748049654615 37.572602458585 44.552340821881 57.714676464707 37.599215159992 44.562906313398 
57.612679963905 37.673260752287 44.591010426431 57.609170771364 37.675854743024 44.592004027832 57.602744175189  37.68034072883 44.593671727914 
57.513442410971 37.743571587198 44.617359641041  57.45178679943 37.785425080485 44.632679081899 57.432137224397 37.799247862704 44.637839425458 
57.409856702614 37.814083297732 44.643209326825 57.356727815766 37.849625896488 44.656109923637 57.318583547234 37.874140653089 44.664795749268 
57.279782731082 37.899604141432 44.673933632641 57.205422412901 37.946095151131 44.690119975528  57.19698823275 37.951430753069 44.691991747135 
57.173904960357 37.965615405403 44.696874348787 57.109921886421 38.005525668011 44.710748552065  57.08656358622 38.019285981146  44.71534854076 
57.019568712764 38.059356990262 44.728889150092 56.961786557432  38.09121993703 44.739018287035 56.927369105076 38.110637969457 44.745303840692 
56.841493113495 38.156046576308 44.759239996311 56.835105591779 38.159485907243  44.76031207543  56.83247900794 38.160836947586 44.760716603275 
56.743104096948 38.205633836885 44.773806612941 56.697384503678 38.227036203074 44.779633558086 56.653408621783 38.246757061109 44.784741318116 
56.580888227154 38.277787490006 44.792308064682 56.569572652236 38.282623316506 44.793485312647 56.560936151087  38.28590797741 44.794150513682 
56.488412387963 38.312649396059 44.799253388723 56.438217669659 38.328843905071 44.801456341051 56.402513701124 38.340974038491  44.80337415141 
56.314146478876 38.366115948805 44.805317818168 56.304959824901 38.369052565105 44.805705318809 56.269900675269 38.377925004022 44.805843258882 
56.199370550059 38.395155153549 44.805765265497 56.181463452931 38.398335251127 44.805059393343  56.08817117816 38.417430101004 44.802833443209 
56.048621175799 38.422333725152 44.800056810928 55.972446146512 38.433833750039 44.795889433845 55.915142732255 38.438660215489 44.790557856311 
55.853512009946 38.445246706238  44.78562519651 55.780973280293 38.449346667467 44.777721822726 55.732612494768 38.453263686895 44.773132541559 
55.646681047574 38.455621763016 44.762334761136 55.610213754871 38.457166959194 44.758065160743 55.513039414817 38.455893654012 44.743591761737 
55.486681032168 38.455741521667 44.739776868674 55.378637603891 38.448995564582 44.720623178626 55.359350368722 38.447795183463 44.717206201777 
55.244985213951 38.434173646971 44.693209521517 55.231468850437 38.432402041287 44.690280559243 55.132909326177 38.415481761758 44.666624424561 
 55.11400613242 38.412204849018 44.662069100618 55.110999620657 38.411591622536 44.661291722679 55.007050517618 38.388537348631  44.63335034878 
54.969633470095 38.379280895476 44.622742504528 54.905601994668 38.361572760817 44.603516707957 54.843381265345 38.342719572218 44.583889318844 
54.806182040911  38.33086429139 44.571819640453 54.724577416419 38.304067860078 44.544888839249 54.707322298135 38.298372782466 44.539177706524 
54.619164323258 38.269340598664 44.510036046512 54.612837975703 38.267265774788 44.507949719127 54.534376329093 38.241732928016 44.482189127924 
54.523322158325 38.238220928327 44.478608764689 54.463131576064  38.21937837912 44.459274583037 54.402871783342 38.200916207225 44.440149083767 
54.375855283313 38.192903794578 44.431726566015 54.340208538966 38.182673314236 44.420809639217 54.284689059095 38.166853330447 44.403872041449 
54.250432378136 38.157350860928 44.393569826221 54.196855293406 38.143434111085 44.378000038946 54.140253586916 38.129162225583 44.361798547268 
54.089377896623 38.117195514747  44.34773078818 54.025974682979 38.102521120873 44.330336268849 53.956356765117    38.087464617 44.311843421421 
53.906932326069 38.076870518735 44.298769254222 53.813862979504 38.058679549727 44.275159701278  53.78832881084 38.053755809543 44.268720790515 
53.687914164018 38.036721470037 44.244736800097 53.673308564637 38.034275696253 44.241266592887 53.669272790045 38.033650162907 44.240336591532 
53.559005327088 38.016643382486 44.214975076838 53.516918551746 38.010151570151 44.205294727866 53.443083516548 37.998577155318 44.188205449144 
53.357125019079 37.984331782953  44.16786764448  53.32412214276 37.978696525265 44.159963873215 53.234354253632 37.961929173554 44.137638856824 
53.199931136884 37.955609260664 44.129141007774 53.188080318998 37.953245455098 44.126107451188 53.073418387435 37.929035056156 44.095987083326 
53.031006416264 37.919076227112 44.084269463461 52.930438968961 37.892397427097 44.054724563822 52.915944488718  37.88849569823 44.050433842191 
 52.88334845772 37.878439709399 44.040048556526 52.810071415811 37.855971745735 44.016781472202 52.774690145527 37.842978825087 44.004315478912 
52.710756984259 37.820137976234  43.98215560866 52.620014347107 37.784396478083 43.948794936184   52.6121005589 37.781314346389 43.945905570418 
52.598822796858 37.775906947484 43.940922130738 52.511779417109 37.740599072974  43.90833364703 52.461364598692 37.718385636998 43.888445851257 
52.411148606014   37.6959377077 43.868451491409 52.341169334198 37.661189281226 43.838597476974  52.31115093026 37.646314557155 43.825809067873 
52.288062543888 37.634110191144 43.815534400539 52.211784895107 37.594503705938 43.781999461906 52.124128177214 37.547626072852 43.742679145354 
52.112970211177 37.541633809318 43.737659562963 52.103616310952 37.536428526626 43.733347108463  52.01556886622 37.488668156911 43.693464536385 
51.936192519136 37.443413416091 43.656247311615 51.923232084906 37.436115048827 43.650222668776  51.90002209157 37.422549832561 43.639149199166 
51.834743050697 37.384312240462 43.607955871922 51.803307573364 37.365531352751 43.592723557937 51.752053225658 37.334499943098 43.567652431135 
51.697894519012 37.300735220391 43.540600699735 51.669087015529 37.282361325819  43.52597378188 51.606333825027  37.24098226498 43.493333347957 
51.574290649729 37.219300486614 43.476348967338 51.512976733959 37.177217232461 43.443507617134 51.463601282415 37.141803026867 43.416184936623 
51.415452362044 37.107380471289 43.389605262795 51.354155915386 37.060288802083 43.353889797344 51.326690601513 37.038926432664 43.337736255517 
51.287483410073 37.007209762254 43.313975218072 51.247158790057 36.974939012356 43.289737921725 51.225968903183 36.957644685194 43.276808312232 
51.175606315054 36.915531475643 43.245498457864 51.131437265999  36.87764601119 43.217492680916 51.119970538166 36.867510769339 43.210049912794 
51.071673054631 36.824706025491 43.178634915659 51.047887366285 36.803050407466 43.162833306888 51.000340909802 36.760660555977 43.131762811161 
50.960413508421 36.724562902772 43.105383704352  50.92141767918 36.690566724906 43.080343320816 50.860148063516 36.636493474592 43.040621775142 
50.841810234666  36.62084044937 43.029038176897 50.800383779775 36.584846461057 43.002506618854 50.766393123537 36.555282017468 42.980719419202 
50.746581010027 36.537849063469 42.967905029494 50.690994468241 36.490361330825 42.932769560777 50.614662945173 36.424482779637 42.884137629282 
50.613369638266 36.423392879181 42.883328749206 50.611967270281 36.422178358853 42.882432870585 50.534064135208 36.353504173543 42.831973013045 
 50.48131996322 36.304275990682 42.796239874469 50.444647802087 36.271083789496 42.771989860839 50.372909227873 36.200098771064 42.721074547068 
50.360798644779 36.188257050485 42.712560610149 50.321618764322 36.144864130778 42.682097175354 50.284425715601 36.103915788063 42.653318755777 
50.274570906556 36.091178884458  42.64460967419 50.217871030849 36.018675345538   42.5949489207 50.187811496367 35.972838595764 42.564371640223 
50.159756275462 35.931525370161 42.536675891531 50.109884615409 35.846172024278 42.480600468833 50.108604260425 35.844067575999 42.479210714329 
50.106421144139 35.839886864672 42.476500791579 50.063513643421 35.756864603772 42.422749077203 50.042391093088 35.710909689287 42.393367767668 
50.024112222526 35.672952212959 42.368981934548 49.999362627106 35.616093769387 42.332825252883 49.989861836321 35.593490201981 42.318499312142 
49.984490460763 35.578960275108 42.309394439167  49.96005996127 35.514904736291 42.269149227772 49.947049549811 35.473387435812 42.243463856041 
49.930001508966 35.423325759146 42.212300029338 49.912322699966 35.357126993076 42.171778656169 49.898218175511 35.311483588875 42.143568728855 
49.877829835437 35.227470462616 42.092432496097 49.870077448915 35.193510880854 42.071831476454 49.864871773251 35.167115232262 42.055934953054 
49.846183092589 35.081841284301 42.004314926969 49.832274452076 35.003502667581  41.95735418938 49.827576224285 34.979058185571 41.942650081084 
49.813899040386  34.89695484289 41.893559803103 49.809864350491 34.872232783319 41.878790103344 49.798641692622 34.802118235478 41.836932706629 
 49.79222445832 34.757603371566 41.810458068278 49.784297185055 34.708995829706 41.781419253574 49.774679711326 34.644597522803 41.743071982539 
49.769614411063 34.616672427862 41.726316872297   49.7576145398   34.5388621177 41.679929499711 49.756128167378 34.531028087301 41.675219822564 
49.750918807351 34.498537584235 41.655822195441  49.74391253811 34.455353260427 41.630028454077 49.740900995811 34.435282758855  41.61807506913 
49.731848074092 34.382410796277 41.586427796768 49.724888749568 34.350135840916 41.566906495354  49.71615487476 34.290996849545 41.531704870459 
49.702801298831 34.225273706478 41.492068331832 49.699348403642  34.17757583651 41.464184739461 49.689247600697 34.109617870805 41.423724625798 
49.688439540674 34.051964927841   41.3904973562 49.684806949746 33.998145649398 41.359072517853 49.693459494423 33.931400711496 41.321961144048 
49.700039731423 33.892129788376 41.300336425335  49.72096733576 33.825366556081 41.264950442698 49.735373842864 33.789965650281 41.246655235729 
49.763067450893 33.726036339479 41.213853743295 49.778960242261 33.697958983063 41.199975005982 49.824333019685 33.626740371247 41.165487029878 
49.833564660011 33.615573074461 41.160378595636  49.88742712346 33.560770936792  41.13652001308 49.908863107631 33.538106537794  41.12653411064 
49.913421876058 33.534015153733  41.12482890821 50.001163009636 33.464602488472 41.097369771974 50.021672305152 33.450784906583  41.09233399407 
50.111097773132 33.394127594461 41.072439094272 50.144230408925 33.375473552326 41.066410644286 50.239619076905 33.326296576371 41.051655375408 
50.275202833415 33.309933187488 41.047289192684 50.335305378184 33.287684209047 41.043009985064 50.399135618453 33.261629534407 41.037072132379 
50.490051779814 33.230405238212 41.031995506857 50.513256316137 33.222029287848  41.03046628481 50.522850246273 33.219213235565 41.030205625826 
50.625265592342 33.186203359549 41.025729628526 50.646421745124 33.180358685063 41.025364570373 50.722946533341 33.158330342413  41.02353446468 
 50.74584449659 33.151396305374 41.022790051711 50.756434294163 33.148033412971 41.022356147131 50.844513290801 33.120465466075 41.018978325141 
50.943697438538 33.088086302119 41.014407632185  50.94720953835 33.086900759587 41.014223384847 50.950877071126  33.08566421046 41.014031822664 
51.052387499858 33.050767222174 41.008343991061  51.15822378301 33.016681924279 41.003734102341 51.159320537163 33.016320409001 41.003681565226 
51.160528974687 33.015954932642 41.003642546958 51.266865507118 32.981111859048 40.998668172996 51.360481509356 32.953714910145 40.996171588908 
51.377155421141 32.948478341595 40.995521932923 51.396470385357 32.943012752576 40.995114227864 51.487890122704 32.915641967189 40.992322082247 
51.568287018658  32.89476929843 40.991703319168 51.601720006368 32.884955175199 40.990794555772 51.635872648189  32.87567965934 40.990296912905 
51.715222025151 32.853326343211 40.988679602583 51.811996543247 32.827221520147 40.987371818535 51.829351704071 32.821921450005 40.986782030377 
51.841175051812 32.818314089121 40.986382159811 51.945307097105 32.786995068019 40.983120075828 52.015974857592 32.764606685625 40.980254899533 
52.062256638446 32.750469941283  40.97868047062 52.145988574713 32.725090473055  40.97594485546 52.176735900373 32.714965369495 40.974477682864 
52.197496504587 32.708490174051 40.973694547509 52.289190939384 32.680031940776 40.970316672468 52.384368941572 32.652430366376 40.967923454519 
 52.39682802347 32.648336389037 40.967333998983 52.409408190657 32.644491570746 40.966904771554 52.499366386522 32.617271631983 40.963992578381 
52.587057998197 32.591505576511 40.961594890917 52.597523100037 32.588556082539  40.96138078787 52.674315279882 32.566844735763  40.95977056256 
52.705667360465 32.557830438128 40.959026904351 52.708557606953 32.556983705008 40.958949311915 52.749979016645 32.546309675781 40.958676357445 
52.823663443623 32.527132906214 40.958082379624 52.829977751861 32.525634697299 40.958114831292 52.938327696183 32.497838793168 40.957472732696 
52.957246044792 32.493317726069 40.957551426198 53.045195824214 32.470508515089 40.956888513069 53.077613461347 32.462317687327 40.956768502693 
53.142741914205 32.444117480255 40.955525456308 53.191821339033 32.430039010495 40.954380131039 53.230712266167 32.417921601155 40.952920317965 
53.290360506302 32.398509375881 40.950206154667    53.301572478 32.394679131296 40.949591811947 53.333669336259 32.383079856144 40.947468794628 

POLYGONS 1 484
483 0 1 2 3 4 5 6 7 8 9 10 11 12 13 14 15 16 17 18 19 20 21 22 23 24 25 26 27 28 29 30 31 32 33 34 35 36 37 38 39 40 41 42 43 44 45 46 47 48 49 50 51 52 53 54 55 56 57 58 59 60 61 62 63 64 65 66 67 68 69 70 71 72 73 74 75 76 77 78 79 80 81 82 83 84 85 86 87 88 89 90 91 92 93 94 95 96 97 98 99 100 101 102 103 104 105 106 107 108 109 110 111 112 113 114 115 116 117 118 119 120 121 122 123 124 125 126 127 128 129 130 131 132 133 134 135 136 137 138 139 140 141 142 143 144 145 146 147 148 149 150 151 152 153 154 155 156 157 158 159 160 161 162 163 164 165 166 167 168 169 170 171 172 173 174 175 176 177 178 179 180 181 182 183 184 185 186 187 188 189 190 191 192 193 194 195 196 197 198 199 200 201 202 203 204 205 206 207 208 209 210 211 212 213 214 215 216 217 218 219 220 221 222 223 224 225 226 227 228 229 230 231 232 233 234 235 236 237 238 239 240 241 242 243 244 245 246 247 248 249 250 251 252 253 254 255 256 257 258 259 260 261 262 263 264 265 266 267 268 269 270 271 272 273 274 275 276 277 278 279 280 281 282 283 284 285 286 287 288 289 290 291 292 293 294 295 296 297 298 299 300 301 302 303 304 305 306 307 308 309 310 311 312 313 314 315 316 317 318 319 320 321 322 323 324 325 326 327 328 329 330 331 332 333 334 335 336 337 338 339 340 341 342 343 344 345 346 347 348 349 350 351 352 353 354 355 356 357 358 359 360 361 362 363 364 365 366 367 368 369 370 371 372 373 374 375 376 377 378 379 380 381 382 383 384 385 386 387 388 389 390 391 392 393 394 395 396 397 398 399 400 401 402 403 404 405 406 407 408 409 410 411 412 413 414 415 416 417 418 419 420 421 422 423 424 425 426 427 428 429 430 431 432 433 434 435 436 437 438 439 440 441 442 443 444 445 446 447 448 449 450 451 452 453 454 455 456 457 458 459 460 461 462 463 464 465 466 467 468 469 470 471 472 473 474 475 476 477 478 479 480 481 482 

CELL_DATA 1
FIELD FieldData 6
ClosedSection 1 1 int
1 
SectionArea 1 1 double
        54.4123 
SectionLength 1 1 double
        27.3185 
SectionMinSize 1 1 double
        3.22297 
SectionMaxSize 1 1 double
        5.03227 
SectionShapeFactor 1 1 double
        0.64046 
