# vtk DataFile Version 4.2
vtk output
ASCII
DATASET POLYDATA
POINTS 746 double
 40.20965458663 41.156592793218 39.204222401867 40.219492229535 41.148336536848  39.21172274131 40.256222600931 41.119326019778 39.241881399014 
40.267729288584 41.109713828345 39.250707431218 40.295456541173 41.087602112781 39.273222057757 40.313592061648 41.072635938781 39.287350399766 
40.328429616143 41.060803070159 39.299398154345 40.347334920476  41.04531820179 39.314264548984 40.368299966978 41.028816362614 39.331546058771 
40.382881738927 41.016821666947 39.342951910226 40.411534144286 40.994297226001 39.366603603343 40.419916017993 40.987395405632 39.373151535123 
40.455759876929 40.959166019246 39.402678370246 40.457693044481 40.957560471497 39.404172260527 40.469539801627 40.948228198574 39.413928594896 
 40.49511012753 40.928088548015 39.434990880766 40.499138091851 40.925042642252  39.43845897872 40.531218402947 40.899409432842 39.464448895096 
40.540467143129 40.892298013872 39.472272500102 40.565720905217 40.871962904604 39.492546073181 40.578380545443 40.862166608053 39.503181147424 
40.600538459343 40.844511384121 39.521191372905 40.611002820124 40.836423344068 39.529993522974 40.646772226295 40.808340528345 39.559563403282 
40.647751271372 40.807609367092 39.560417265847 40.655082514607 40.802041862536 39.566701380927 40.689317407208 40.775921929501 39.595902591397 
40.693390142725  40.77276333418 39.599315662782 40.736742616842 40.741456716345 39.638394454012  40.74006536848 40.738994511657 39.641315215594 
40.784712123371 40.708191328462 39.683267686606 40.786720532268 40.706750665453 39.685089611319 40.831198167501 40.677107986823 39.728122171302 
40.832370422419 40.676328892107 39.729258914663 40.874752339645 40.648940984318 39.771282342537 40.884441515817 40.643355475435 39.781691726391 
40.914076211007 40.624938628167 39.811946516817 40.942227187464 40.608836116345  39.84233913383 40.951920049713 40.602835870511 39.852262713528 
40.971085505951 40.591651409039 39.872691126584 40.989091883509 40.581297393648 39.892066921178  40.99820867179 40.576338950476 39.902214026304 
41.026257633475 40.560248155315 39.932441148557 41.052730775015 40.545865154812 39.961924173989 41.064184963851 40.539502281052 39.974514772929 
41.090755066667 40.525523791329 40.004648461735 41.102736743219 40.519236004785 40.018255823209 41.108307644884 40.516445083221 40.024739979255 
41.141997403264 40.499358388312 40.063704837932 41.168824004187 40.486308157493 40.095391431207 41.181698638168  40.47995944595 40.110496822529 
41.201070801624 40.470692464621 40.133564768817 41.221602666157 40.460827855017 40.157962779301 41.237460405356 40.453400617569 40.177034038751 
41.261336052947 40.442061296446 40.205561935863 41.290835797828 40.428318724523 40.241127697674 41.300247153428 40.423898052827 40.252431152801 
41.307761415504 40.420438022047 40.261538662503 41.338563847818 40.406117606951 40.298709427642 41.375095566281 40.389443378105 40.343161722685 
41.375722081962  40.38915530336 40.343921567177  41.37623901835 40.388923172133 40.344555110618 41.412333556749 40.372637911913 40.388700284582 
41.443053829423 40.359071318645 40.426621339569 41.448140116386 40.356840407869 40.432917980854 41.454051286523 40.354303484276   40.4403020217 
41.483319633597 40.341763307725 40.476888074439  41.50734291359 40.331779813788 40.507284942823 41.517573584119 40.327546896549 40.520252099498 
41.529605031913 40.322666236073 40.535617225483 41.550995903887 40.314085101435 40.563049343993 41.567843012661 40.307465147557 40.584818733197 
41.583367323921  40.30133716757  40.60484582813 41.604208412278  40.29318521087 40.631820529812 41.614974296807 40.289070024459 40.645868653711 
41.622579297453 40.286196523864 40.655831937858 41.645800343438 40.277224182008 40.686018226889 41.671668001255  40.26752935654 40.720001246596 
  41.6769359173 40.265488519359 40.726842913618 41.687838766781  40.26144016637 40.741211233105 41.708466202479 40.254057579131 40.768723436999 
41.718001628469  40.25085661206 40.781692852047 41.739480303277 40.243918690386 40.811229848642 41.766557931929 40.235645100499 40.849027697199 
41.769041597773 40.234981234079 40.852607450244 41.772775778034 40.234071651728 40.858094685609 41.797100372332  40.22881780176 40.894635458115 
41.819812864908 40.225079524326 40.930140164605  41.82408672703 40.224529965014 40.937003821508 41.827394076944 40.224228385898 40.942462127466 
41.850605526953 40.223003958031 40.981828197228 41.874114475265 40.222631724852 41.022728986968 41.878821174124 40.222681349851 41.031065049328 
41.885640815037 40.223006150208 41.043443541532 41.907016690755 40.224758105255 41.083114508146 41.920075827612 40.226063271885 41.107629401609 
41.936457725235 40.228137999639 41.138901129598 41.964989430185 40.232255070886 41.193963630056 41.966583285971 40.232485348829 41.197039906911 
41.972674346879 40.233574966507 41.209044951411 41.996894362135 40.238105058162 41.257015202134 42.001578417221 40.239034279859 41.266355511269 
42.028279081267 40.244252514608 41.319505024017  42.03462342673 40.245640189453  41.33230928178 42.058347977983 40.251003319813 41.380397018249 
42.065154747075 40.252760826103 41.394453474346 42.086858951036 40.258724586522 41.439701185005 42.093155756933 40.260669641423 41.453083441769 
42.114707237283 40.267770238191 41.499411981524 42.119395110841 40.269569948669 41.509792262741 42.141906684445 40.278685140351 41.560200507391 
42.144239505935 40.279793250314 41.565618295944 42.168721499274 40.291674307124 41.622774742862 42.169216476244 40.291957321824 41.623981139052 
42.177891191197 40.296933142683 41.645142638397 42.194193108707 40.306275900104 41.684900754813 42.195188340415 40.306841104723 41.687321849625 
42.217727741076 40.322282845716 41.745288548549 42.224458239634  40.32699527638 41.762718326285 42.240401463895  40.33923188567 41.805280606161 
42.257078944908 40.352389438355 41.850227289162 42.261914617227  40.35646125899 41.863564448168 42.269882016565 40.363468799364  41.88589368882 
42.282041100507 40.374070670647 41.919860804433 42.289868359132 40.381371494105 41.942291717452 42.300963127599 40.392275168024 41.974745372594 
 42.31466250704 40.406873337045 42.016164782669 42.318863060535 40.411257415049  42.02875567218 42.322206995195 40.415122713201  42.03922433572 
42.335548931685  40.43148974439 42.082114762347 42.348858778019 40.449930445349 42.127410170009 42.351145121132 40.452990299131 42.135062912353 
42.353318071042 40.456337186831 42.142856947326 42.365468984735 40.476156128526 42.187750217281 42.375484229055 40.495321070562 42.228111430651 
42.378648669919 40.501086948394 42.240520397206 42.382089382903 40.508551970042 42.255432071305 42.390500788677 40.527955406588 42.293255878004 
42.396108691265 40.543659066146 42.321757890192  42.40113814118 40.556866730278 42.346279932091  42.40749079933 40.577549151261 42.382001378837 
42.410416205685 40.587708430387 42.399204882008  42.41190705122 40.594388850008 42.409756226085  42.41815718549 40.620480968963 42.451718604517 
42.423202847152 40.647325073108 42.492455403255 42.424653309214 40.654498275621 42.503520655122 42.426873843925 40.668352756798 42.523870726028 
42.430050802962 40.689377838791 42.554414150313 42.431327257882 40.700045886978 42.569321723476 42.434600667114 40.724879278125 42.604555169281 
42.437300190224 40.750826354016  42.64010131098 42.438453661631 40.760659403935 42.653801476194 42.440802946797 40.785920667902 42.687917644268 
42.441606421655 40.794926606542 42.700020540186 42.441832578525 40.798258158993 42.704372759738 42.444054765497 40.828241112878 42.743869988231 
42.444751901612 40.840491532177 42.759637027015 42.445783032507 40.858608610097 42.782955060616 42.446441549639 40.873097741143 42.801311501218 
42.447409064128 40.895252798459 42.829310679742 42.447836286173 40.908309557002 42.845560162498 42.448783677128 40.935760634886 42.879810247865 
42.449063984518 40.945653414782 42.892045773274 42.450153497893  40.97742963957 42.931679677478 42.450356096903  40.98436124627 42.940263678059 
42.451668581272 41.018175187536 42.982708435529 42.451828084876 41.022886094166 42.988580711691 42.453321618072 41.058019999059 43.032910636759 
42.453431895587 41.061206915951  43.03688739171 42.454933683671 41.097221698555 43.082277422204 42.454996879445 41.099307516953 43.084864392455 
42.456284965628 41.136115705039 43.130820368953 42.456314996656 41.137352905348  43.13234171921 42.457326150099 41.174931587308 43.178725248802 
  42.4573346756 41.175428964494 43.179330620831 42.457898851777 41.201907813365  43.21175276708 42.458146071788 41.213534744795 43.225988516831 
42.458151984463  41.21375277818 43.226257717122 42.458855566326  41.25166813826 43.272499985913 42.458881014434 41.252667968278 43.273731521761 
42.459546763074 41.289950615495 43.319156236836 42.459596406376  41.29191034056 43.321569702962 42.460102511071 41.328515636998 43.365909664555 
42.460162705506 41.331799591555 43.369913526087 42.460277368454  41.36757808932  43.41258370429 42.460304799563 41.372776720213 43.418802640236 
42.459849047868 41.407227708337  43.45889395862 42.459730814066 41.415238099273 43.468194245995 42.458558664371 41.447378957503 43.504283624238 
 42.45805900018 41.459624901625  43.51794066881 42.456292587991  41.48796475972    43.548473253 42.454998478182 41.506507117717 43.568206940219 
42.452994529857 41.528571418648 43.590872804539 42.450199254766 41.556338016143 43.618915588073 42.448672828033 41.568835194046 43.631065187962 
42.444555484778 41.600130598867 43.660971634979 42.443650731457 41.607063938758  43.66761031299 42.443229011047 41.610016110003 43.670372861665 
42.437732262198  41.64427098058 43.701366339288 42.434447247598  41.66372610911 43.718682284012 42.431126399111 41.681438883718 43.733867063964 
42.425322124371 41.711111513688 43.758880679377 42.423133939177 41.721378883669 43.767219768686 42.414787754815 41.759163549096 43.797392067499 
[...]
CELL_DATA 1
FIELD FieldData 6
ClosedSection 1 1 int
1 
SectionArea 1 1 double
        38.4852 
SectionLength 1 1 double
        22.3535 
SectionMinSize 1 1 double
        3.19688 
SectionMaxSize 1 1 double
         3.7889 
SectionShapeFactor 1 1 double
       0.843747 
