# vtk DataFile Version 4.2
vtk output
ASCII
DATASET POLYDATA
POINTS 162 double
50.577306731976 29.424606517898 31.048977866147 50.601796859454 29.416633174718  31.04042298418 50.628489688405 29.409003626373 31.034120964378 
50.695193089046 29.389120382686 31.016043663711 50.746490522685 29.376346357229 31.009311587453 50.790833000911 29.364786176075  31.00201641639 
50.864990169278 29.348216866385 30.997688959941 50.878488001997 29.345052736206 30.996478993252 50.886353286057 29.343501887579 30.996608362699 
50.955775856119  29.32890542477 30.995163690816 51.002318304661 29.320244325773 30.997399095028 51.025426750983 29.315690222895 30.997785846904 
51.068445376532 29.307467298853 30.999232196152 51.095779414746 29.302043475107  30.99958437691 51.112875249072 29.298942114915 31.000633402115 
51.172847671643 29.288209827645 31.004733090169 51.232641146419 29.279590246722  31.01474782377 51.269079300392  29.27380914733 31.019345754647 
51.338712974081 29.264955548775 31.034382930749 51.366793385596 29.261248669171 31.040057714939 51.380341995461 29.259907569882  31.04407040525 
51.464375859862 29.250381297583 31.065516767199 51.527286413579  29.24559537734 31.088254651062 51.559511604319  29.24243250462 31.097875453653 
51.630003831537 29.237833835852 31.125530094503 51.652220897285 29.236343085634 31.134128123184 51.661146975896 29.236214535319 31.138922515343 
51.740110329103 29.232826608874 31.174923784932 51.777120757933 29.234059034478 31.199832127961 51.814191575618 29.234377960262 31.222173081626 
51.868218663851 29.239207317566 31.267166217427 51.878802759353 29.240170656929 31.276029674369 51.889495285369 29.241818886354 31.286906878626 
51.939708460041 29.248767580853 31.335732400706 51.967639293339 29.254772309946  31.36898633773 52.000160155587 29.262704816138 31.410385684101 
52.031467416828  29.27658661271 31.468031237878 52.048611427594 29.283215003145 31.496825428639 52.062465980312 29.292870471068 31.532341114454 
52.084088172534 29.307023324607 31.585159428401 52.097932530657 29.322838124566 31.638215418176 52.108959534448 29.332824974587 31.673040375883 
52.115649730846 29.345277810674 31.712382914537 52.126030829275 29.361727238652 31.765244503221 52.128430454533 29.371688644733 31.795009075509 
52.133920328627 29.396231351554 31.868098278324 52.133988654049 29.408862191698 31.904119477914 52.133312568335 29.430438970739 31.965194751714 
52.129736951687   29.4462195383 32.008081897107 52.125236923766 29.463594624542  32.05497692937 52.117250531193 29.483450771654  32.10692416832 
52.112233813145 29.495104755334 32.137222671249 52.098987289268 29.520258782506 32.201220939576  52.09672913803 29.524225061512 32.211214202696 
52.089445998097 29.536585982964  32.24221624415 52.081711827996  29.55168424441 32.280755432132 52.079045879732  29.55746114412 32.295670875337 
52.070886912437 29.578006824314 32.349482625601 52.055651026916 29.604018826343 32.414774876332 52.054683589955 29.605903479813 32.419584400077 
52.052864293118 29.607862472214  32.42411319325 52.030028813099 29.636177400685 32.491572139809 51.997933143353 29.667185815707 32.561350307641 
51.995879973063 29.669348820421 32.566325060791 51.993275473434 29.671782552668 32.571752290216 51.961052000352 29.703530037575 32.643561970222 
51.926949502388  29.73268914047 32.706911725946 51.920413154576 29.738734969452  32.72035560843 51.913215559966  29.74458085557 32.732847611541 
51.876413715764 29.774047543995   32.7955129696 51.829103978802  29.80443094788 32.854714672564 51.821860159847 29.809376187297 32.864614262994 
51.813171918918 29.814022850484 32.872828204174 51.757529672208 29.844526036417 32.927553707395  51.69849586257 29.871925720553  32.97147738445 
 51.68314522635 29.879238979002 32.983435851226 51.661571155736 29.888610669249  32.99766014202  51.60536765334 29.913893479725 33.037189780555 
51.565026133227 29.929761076187 33.059068708151 51.520880435826 29.947614210899 33.084404495614   51.4303008501 29.978910210961 33.121189545008 
51.428799384072 29.979426733393 33.121792901798 51.424986267425 29.980527391166 33.122723818749 51.331611286396 30.007841629036 33.146549799286 
51.299044409217 30.015454921002 33.149409439217 51.231554412662  30.03109449516 33.154942954592 51.183272437933 30.040087483884 33.152647306686 
51.130506785452 30.049790924873 33.149783306755 51.074834489086 30.058091572512 33.141242673891  51.03479758022 30.064259857119 33.135667110942 
50.957951674282 30.073167366668 33.116613773411 50.942356929306 30.075042100901 33.112938289184  50.88805346633 30.079561529971 33.094417420682 
50.848093322231 30.083034607316 33.081208354616 50.837030516405 30.083706661553  33.07672690682 50.749107731708  30.08920914155 33.041569524662 
50.715257785733 30.090685801688 33.026205829297 50.648698754585 30.093931491546  32.99697090351 50.587815822355 30.095551523148 32.966386562354 
 50.55261826473 30.096667274181 32.949215619686 50.483386069072 30.096919295984 32.909907093764 50.461540338761 30.097158907558 32.897959611222 
50.449016334496 30.097116632802 32.890598452655 50.373492065499 30.097189863369 32.847142850508 50.314097022049 30.096988834875 32.812231043421 
50.290665188646 30.096983130185 32.798667721559  50.24659950957 30.096554148172 32.771969182697 50.213762033709 30.096560005079 32.753000941905 
50.199662468345 30.096395347168  32.74438024057 50.143767072094 30.095411215071 32.709260906922 50.113328776943 30.094661862388 32.689528369091 
50.075076710843 30.093203121764 32.663257468197 50.043019846898 30.092309770614 32.642178946856 50.001728382273 30.090723601571  32.61378781578 
49.972767932935 30.090047541602    32.595118482 49.926461274581 30.087604432181 32.561386644829 49.900374844295 30.086651263041 32.543589514016 
49.852109052015 30.082266206573  32.50319294837 49.827399676308 30.080454865405 32.483747269286  49.77811247109 30.074519314379 32.438343254423 
49.751875547525 30.071580515488 32.414802617665 49.706985634255 30.063935719645 32.367071733054 49.678281678949 30.059013849714 32.336455577001 
49.646234520688 30.049478239229 32.290763310197 49.615779872195 30.040366300513 32.247198671198 49.598923585612 30.029642182461 32.206903256049 
49.574117660894 30.016104466476 32.153996626305 49.564906184767 30.002694924087 32.110471028339 49.550222353397 29.989372952299 32.064031062304 
49.545041446752 29.967690017604 31.999267171803 49.542274541432   29.9608623796 31.978217477693  49.54662918181 29.947898871305 31.943805729898 
 49.54993700013 29.930603687912 31.896449044534 49.565653845065 29.913116563022 31.855719827648 49.576397600109 29.898451448514  31.82015453892 
49.589747225281 29.887968861699 31.798010669651 49.615884170515 29.864944674108 31.747532286031 49.656461267635 29.839023849252 31.697150747581 
49.667768750782 29.830092427135 31.678245047975 49.703975211774 29.808118017704 31.636578857705 49.724778687631  29.79439979448 31.609527003741 
49.734412781859 29.789292924343 31.600548906217 49.785449840559 29.757353987116 31.539070872064 49.820422751444 29.739747272617 31.509133836786 
49.853345914824  29.71979368823 31.471326174112 49.917345716725 29.688129945195 31.418126476338 49.926942791451  29.68231938288 31.407122355724 
49.952328743027 29.669659353865 31.385734348085 50.000644380287 29.643104573796 31.338020872779  50.02075055904 29.633490292845 31.322256850621 
50.093191770338 29.599443293177 31.267148312699 50.104777554773 29.594233496811 31.259005373465 50.154758394892 29.572916986673 31.227176984149 
50.184093947084  29.55960144602 31.206205063163  50.19189876914 29.556403409723 31.201607104012  50.26268879492 29.527960177477 31.161507487477 
 50.30591146627 29.512390548469 31.142143117247 50.342862689082 29.499138798199 31.125755902829 50.398728793306 29.481248523946 31.107090446658 
50.425127636276 29.471910792808 31.095752328923 50.448060911518 29.464662132538 31.088361772738 50.509839355391 29.444571144132 31.066845311446 

POLYGONS 1 163
162 0 1 2 3 4 5 6 7 8 9 10 11 12 13 14 15 16 17 18 19 20 21 22 23 24 25 26 27 28 29 30 31 32 33 34 35 36 37 38 39 40 41 42 43 44 45 46 47 48 49 50 51 52 53 54 55 56 57 58 59 60 61 62 63 64 65 66 67 68 69 70 71 72 73 74 75 76 77 78 79 80 81 82 83 84 85 86 87 88 89 90 91 92 93 94 95 96 97 98 99 100 101 102 103 104 105 106 107 108 109 110 111 112 113 114 115 116 117 118 119 120 121 122 123 124 125 126 127 128 129 130 131 132 133 134 135 136 137 138 139 140 141 142 143 144 145 146 147 148 149 150 151 152 153 154 155 156 157 158 159 160 161 

CELL_DATA 1
FIELD FieldData 6
ClosedSection 1 1 int
1 
SectionArea 1 1 double
        4.51582 
SectionLength 1 1 double
         7.6986 
SectionMinSize 1 1 double
        1.03737 
SectionMaxSize 1 1 double
        1.38104 
SectionShapeFactor 1 1 double
       0.751148 
