# vtk DataFile Version 4.2
vtk output
ASCII
DATASET POLYDATA
POINTS 426 double
48.027207569909 31.897633909724 53.355391215577 47.999638783874 31.918266352188 53.284784668245 47.971734032016 31.938475380089 53.215531007393 
47.961352303859 31.946149319072 53.189256291395  47.92893535634 31.968735086954 53.111726751211 47.922319354503 31.973333999541 53.095938564667 
47.920252867471 31.974699903418 53.091238565952 47.884609861729 31.998987713755 53.007783021342  47.87291998766 32.006617271415 52.981514471093 
 47.84730720126 32.023667725814 52.922864311156 47.830268971395 32.034574866008 52.885276260186 47.810528508381 32.047251729047 52.841596048875 
47.795088950131 32.056865539012  52.80842012515 47.756607004639 32.079944658301 52.728626252067 47.753127994678 32.082051101198 52.721346968645 
47.750627667954 32.083481348386  52.71638971214 47.705958234662 32.108785231092  52.62863988674 47.648213227098 32.140099722358 52.519783572972 
47.647962862533 32.140237209605 52.519305973381 47.647825778714 32.140309133941 52.519055473499 47.646453280977   32.1409957569  52.51665728401 
47.586266312325  32.17124287233 52.411041466917 47.577861705783   32.1752425496 52.397028021852 47.533039165164 32.196310845101 52.323153472087 
47.504524162151  32.20906456136 52.278286207552 47.482601754342 32.218761115124 52.244148108465 47.446020791225 32.234142777199 52.189802395654 
47.433053601892 32.239617839566 52.170463904467  47.42313844755 32.243586342373 52.156391742701 47.383567102257 32.259414917603 52.100261626159 
47.342848131302 32.274794924408 52.045480405369 47.333002935452 32.278542807272 52.032139272485  47.31736967083 32.284235015294 52.011804510776 
47.279615097708 32.297911468735 51.962926367849 47.259937376345 32.304591981187 51.938919264366 47.220730565833  32.31800603107 51.890746987597 
47.176742539145 32.331876058622 51.840569750678 47.154191457932 32.338862976838 51.815251539666 47.086058609002 32.357772260156 51.745974076912 
47.076796857535 32.360314121785 51.736650540848 47.011411753428 32.376281715989 51.677313823193 46.989907631839 32.381552641964 51.657735168321 
46.986341869833 32.382346085621  51.65475292627 46.904057632331 32.400475331121 51.586525838242 46.871258837958  32.40673476744 51.562501599513 
46.821993112597 32.416184346408 51.526259869045 46.754550664611 32.427848127255 51.480819279342 46.754283645253 32.427893649699 51.480641524949 
46.676686518349   32.4405329041 51.430919583755 46.662641810363  32.44270114173 51.422311773135 46.576797613186 32.455334593955 51.371730072238 
   46.549000091 32.459084603354 51.356469005325 46.462224745295 32.469684975814 51.312456039867   46.4435843703 32.472051890117 51.302706919069 
46.435435016208 32.472960402567 51.298858864955 46.343072953349 32.483108218876 51.255734854305 46.294318750483 32.487798618646  51.23515646229 
  46.2483598609 32.492265886032 51.215607746972 46.166589161959  32.49940503375 51.183479954579 46.158109737206 32.500137679293 51.180173525179 
 46.13494052315 32.501954357045 51.171746449828 46.069878468269 32.507245710436 51.147459362983  46.04704092067 32.508961786138 51.139397577015 
45.984020481332 32.513441876403 51.117988765678 45.938050881347 32.516589517693 51.102766928867 45.899568357665 32.519060130142 51.090563371169 
45.838313089848  32.52303851771 51.070988102876 45.811699418253 32.524600288849 51.063030019212 45.740811776453 32.528869527794 51.041474432252 
45.717106958333 32.530103244664 51.034902239529 45.640077759297 32.534251043208 51.013090513981 45.613453716859  32.53544009736  51.00635373701 
45.532195055388 32.539285423977 50.985083356271  45.49895323076  32.54055243207 50.977385735272 45.415370654545 32.544019143853 50.957109478539 
45.378412894161 32.545139087646 50.949498227247 45.299462786956 32.547594655659 50.933031876471 45.283700392195 32.548138003832 50.929570234767 
45.271621460442 32.548377954276 50.927496157811 45.201058163728 32.549779709788 50.915379709182 45.148127272756 32.549747600042 50.909844823701 
45.122106973236 32.549837568218 50.906777087543 45.063398403819 32.549041736376 50.903131349337 45.041542996016   32.5488175351 50.901537806252 
45.034088813987 32.548695936747 50.901142315354 44.956882972443 32.548250113842 50.894377613915 44.931727245176 32.547553981731 50.893980202808 
44.865101881165 32.546133945549 50.891538091632  44.83516361991 32.544486643524 50.893750646743 44.767972842371 32.541096890151 50.897708430647 
44.735012289638 32.538878024895  50.90147351132 44.667602626885 32.534474504927 50.908732853937  44.63027276878 32.531791407928 50.913554906895 
44.565574410932 32.526733645944 50.923248898469 44.521432662728 32.522474430651 50.932514337147 44.465988304044 32.516798243109 50.945222684104 
44.407735116924 32.509454924587 50.963099471249 44.368474441367 32.504552143045 50.974995750807 44.291991084672 32.492923989618 51.004983081695 
44.273847523035 32.490146259272  51.01215995531   44.2158536703 32.479340206597 51.041421216155 44.184828422646 32.473713312892 51.056569938161 
44.175071671344  32.47161492194 51.062412440372 44.100637515678 32.455496494476 51.107345024452 44.055036785744 32.444153754003 51.139687060705 
44.021838830358  32.43584903125  51.16338682517 43.968750017916 32.421454332278 51.204940553774 43.945390374119 32.415412628357   51.2222665716 
43.931090740004 32.411603456201  51.23323589809 43.868136262085 32.394847001344 51.281484289625 43.802193961301 32.378471404377 51.328165193701 
43.785419387206  32.37421536752 51.340336392554 43.748170323914 32.365991723595 51.363338563244 43.696216120277  32.35500275572 51.393843308343 
 43.67088903942 32.350036682665 51.407431899645 43.604792395528 32.336448692968  51.44495375282 43.545332198622 32.323548826418 51.480925911452 
43.515282053167 32.317377200478 51.497965113839 43.432361569929 32.298526846317 51.550953401013 43.428518189749 32.297661770288  51.55338107649 
43.407495708038 32.292596515918 51.567753644327  43.34237181217 32.277241956713  51.61117302569 43.332022523075 32.274669750814 51.618506374399 
43.258967465619 32.257018716384 51.668612452017 43.238731275037 32.251994090983  51.68293555315 43.176134254634  32.23730409285 51.724444610547 
 43.14712565272  32.23020468415 51.744637676175 43.093122868887 32.217906380811 51.779218398439  43.05611415963 32.208890190362 51.804845520817 
43.008147368806 32.197605921861 51.836743662548 42.964652226443 32.186381186196 51.868923041351  42.92070649645 32.175137179074 51.901117611763 
 42.87676630555 32.162680974148 51.937288456196 42.827119557161 32.148191601385 51.979519468066 42.796335809436 32.138663998814 52.007487203005 
42.722041016136 32.114747952063  52.07800873783 42.720453354351 32.114273371952 52.079396055678 42.719682725744  32.11402759639 52.080120017173 
 42.64488235539 32.090307040332 52.149946521785 42.598603997126 32.074167065116 52.197949995234 42.574377747057 32.065751403991 52.222969612578 
 42.54435173551 32.054516042073 52.256619082965 42.503258796128 32.040616512047 52.297827043476 42.470721474561 32.028868329978 52.332890826909 
42.430862937599 32.014387949641 52.376135355853 42.394782848229 32.000340168752 52.418363697481 42.358040302407 31.987681200581 52.455966515886 
42.297555921882 31.964247248574 52.526378515768 42.286429518681 31.960145480697  52.53864561013 42.281908321974 31.958396622171 52.543899628637 
42.210594113187 31.932568598375 52.621009539931 42.188325796873 31.924232521222 52.645976776208 42.138241242571 31.906608994791 52.698440320181 
42.099385468709 31.891954307057 52.742363382837 42.070266276398 31.881694360304 52.772910381626 42.014355739304   31.8600806257 52.837839934936 
42.005128791054 31.856727702329 52.847853421746  41.97870313857 31.845651514424 52.881364490221 41.943479396473 31.831572658053 52.923786001542 
 41.93347577894 31.826750455428 52.938535570238 41.888732251751 31.805563211972 53.003256278421 41.862986518354 31.791081579018 53.048008744257 
 41.84108079287 31.778873043835 53.085715241472 41.803089577617 31.754518810229 53.161542339422 41.798796677438 31.751793473781  53.17002327047 
41.787575819382 31.743308202113 53.196657017087   41.7608680769 31.724321083056 53.256083759827 41.753942910911 31.718317870121 53.275034758575 
41.728790671048 31.695792531031 53.346231665242  41.71648052566 31.682091873035 53.389854408682 41.703388392699 31.666881500226 53.438345285097 
41.691275996741 31.648633478207 53.496903235053   41.6856321105  31.63878237326 53.528610818215 41.677110664142 31.621236326697 53.585249120409 
41.673144992954 31.611949664206 53.615284310477 41.666088397257 31.598861225597 53.657458944929 41.658626667635 31.577230745128 53.727606016273 
41.656954225637 31.572730646444 53.742186921753 41.656613824305 31.569113338919  53.75401444818 41.653539133301 31.546088217509 53.829203040866 
 41.65504834254 31.519811470014 53.915544545417 41.655079828167 31.518565824617  53.91963328338  41.65531275113 31.517177761349 53.924210578489 
41.658690684982 31.491143256965 54.009956717678 41.663683007595 31.472545863252 54.071483153508 41.666477555454 31.463810051055 54.100432056059 
 41.67533723086 31.445712909461 54.160729895488 41.679733251012 31.436018689398 54.192992768165 41.681877199327 31.432166660108 54.205854845768 
41.697519939688 31.408111416551 54.286416450345 41.704249467563  31.39808982889 54.320001654312 41.718370967155  31.37962591648 54.382063091847 
 41.72553738968 31.370761823576 54.411898577864 41.743069300909 31.351416046816 54.477215699829 41.747698520685 31.346311652513 54.494450023838 
41.751596546109 31.342533421954 54.507256971905 41.774236264824  31.32129330512 54.579331297905 41.800089516403  31.29970581635 54.652887337559 
41.805156226494 31.295495301682 54.667236594014  41.81120501379 31.290961044851 54.682752285906 41.839985331235 31.269182155488 54.757247969753 
41.866266140816 31.250917520977 54.819951497965 41.877487391303 31.243426803104 54.845714755462 41.903508571976 31.226830820893 54.902917886048 
41.921514683482 31.215209267814 54.942952155032  41.92643107335 31.212014012985 54.953955613637 41.941163423647 31.203322782833 54.984030364443 
41.974649055836  31.18381719036 55.051571631764 41.994451724064 31.172811101954 55.089778778681 42.020398124891 31.158100768686  55.14078951793 
  42.0546700057 31.139048895034 55.206926490054 42.065564304541 31.133166596016 55.227379725715 42.073971587076 31.128710102975 55.242891689178 
42.110236972027  31.10879110812 55.312085009684 42.153865701765 31.085089084408 55.394470272031 42.155345454784 31.084262328883 55.397339487648 
42.157354071149  31.08315636984 55.401180770434 42.201004415011 31.059626670577 55.483003157943 42.233247872375 31.042470712588 55.542705890768 
42.247962038652 31.034346149949 55.570920186415 42.271597806644 31.021410511132 55.615864187843 42.295034475858 31.008851150613 55.659552881819 
42.307007374931 31.002455236592 55.681805570202  42.34111256662 30.983371948311 55.748027811865 42.365955664378 30.969837453234  55.79506455161 
42.386859801871 30.957689333855 55.837134624019 42.420210898834 30.939435132398  55.90055732855 42.431546460536 30.932837301455  55.92340433706 
42.469263308294 30.913461872799 55.990969570786 42.478912907015 30.908544511443  56.00812543718   42.4824826379 30.906959664865  56.01370369154 
42.532310768562  30.88441547821 56.092952153011 42.557201262239 30.874192188553 56.129134077165 42.589397672542 30.860260511887 56.178257018496 
 42.63860676595 30.841047752738 56.246513327734 42.644737583359 30.838433813182 56.255739634772 42.657226291551  30.83383441192 56.272155206436 
42.699522781016 30.818159347228 56.328072234814  42.73628221542 30.806160015774 56.371343827539 42.755066765628 30.799708179459 56.394505760295 
42.771172282868 30.794816060998 56.412266764934 42.814642278634 30.781849423746 56.459425923672 42.873586322717 30.765804127951 56.518331136828 
42.880200913106 30.764028111659 56.524860829982 42.892677570654 30.761000926501 56.536118670268 42.948906469698 30.746399394362 56.589999405969 
42.980953642474 30.738854507589 56.618159486428 43.023700399139 30.728581948762  56.65640572352 43.094998805883 30.712605845206 56.716400457813 
43.103686159554 30.710645981158 56.723753991316 43.156389788285 30.699553073148 56.765751735699 43.189847104685 30.692312068134 56.793065427204 
43.194523715403 30.691321411523 56.796812844412 43.284540819413 30.673248892742 56.865677880892 43.285495448749 30.673046262377 56.866444177319 
43.295345084016  30.67110796505 56.873850827873 43.371010374699 30.655961146594 56.931591054727 43.379012930567 30.654506995922 56.937213013426 
43.452454782757 30.640537928453 56.990853608201 43.473846874678 30.636962388536 57.004859913735 43.532182157356 30.626755888916 57.044550572655 
43.572054209242 30.620802259769  57.06832555628 43.610551581682 30.614532611948 57.092990513676  43.67008441137 30.606032070958 57.127213693599 
43.687014254317 30.603401280473 57.137645987069 43.753978544178 30.594534299352 57.173862872077 43.763933051118 30.593131973395 57.179522855128 
43.766300835493 30.592840122734  57.18073235283 43.846082673275 30.583169112933 57.220952045449 43.860658023777 30.581661272782 57.227450473477 
43.937996197681 30.573546512929 57.262305692188 43.963077257487 30.571314943638 57.272297222536 44.041927114254 30.564242623747 57.303894599192 
44.076445980429 30.561682703846 57.315968702953 44.174335107245 30.555112750821 57.347947232826 44.178996933527 30.554809447109 57.349438741418 
44.193544542782 30.553921270328 57.353901883688 44.277753936745 30.548244604315 57.381492990065 44.307188505593 30.546539725728 57.390221016262 
44.372686014592 30.542348299969 57.410947036393 44.433458899819 30.539069122042 57.428177682925 44.466737772594 30.536996714925 57.438520744551 
44.561712450956 30.532141286869 57.464565535137 44.562297625852 30.532105848925 57.464744117015 44.563828981605 30.532026778991 57.465166623027 
44.657670078327  30.52704861107 57.491493175549 44.695209322284 30.525397968029 57.500906939669 44.753864978917  30.52197961886 57.518368423439 
44.834529423884 30.518315284476 57.538981879806 44.851716143999 30.517219212582  57.54440808003 44.889774027889 30.515340215246 57.554626050121 
44.950976909331 30.512437312292 57.570668435058 44.978417288974 30.511804565251 57.575667660917 45.054529039259 30.508795544164 57.593646740449 
45.126903090156 30.508082071018 57.603698757358 45.163536831124 30.507327916105 57.610075792415 45.239081831333 30.507121702857 57.618802022096 
45.269602002559 30.507140187029 57.621993559852 45.288187423107 30.507447438754 57.622966277234 45.371314791841 30.507722602188  57.63092168062 
 45.45201799584 30.509028079891 57.635239615895 45.466279421984 30.509430538824 57.635439324034 45.482663134756  30.51004619821 57.635165937944 
45.555054764102 30.512431180714 57.635057724179 45.609276537709 30.514652478612 57.633550213027 45.641896596664 30.516128582114  57.63218490951 
45.719768058943 30.519840833082 57.628307529731 45.734955817139 30.520522167357 57.627691309379 45.740554766393 30.520780935655 57.627439230196 
 45.83143963642 30.526331062373 57.618920790215 45.920766509341 30.532833674642 57.607112436332 45.938632670526 30.534167433196 57.604641843876 
45.953432070926 30.535511088526 57.601812005507 46.048109643134 30.543308807292 57.586326208046 46.142520285732 30.553186772453 57.563989316733 
46.155985147767 30.554400414715  57.56144368096 46.171175651693 30.556030846416 57.557714968097  46.26048122208 30.565360737927 57.536631626385 
46.346517545918 30.575271137018 57.513296011881 46.360484775222 30.576600473942 57.510424459763 46.372091464833 30.577936960535 57.507277924843 
46.457874723452 30.587886202343 57.483787950581 46.529131873356 30.597721022258  57.45912537994 46.546623055555 30.600126098234 57.453101196655 
46.573840887541 30.604246589775 57.442487360198 46.628885140328 30.611833093004 57.423471055584  46.66002275199 30.616471503725 57.411576265997 
 46.70280414536 30.622779735659 57.395445645753 46.759007274839 30.631750863608 57.372011630593 46.759541894684 30.631835230339 57.371791898223 
  46.8214368785 30.641314356549  57.34729829618 46.836917558525 30.643978767271 57.340209329867 46.897430203071 30.654201089139 57.313130946361 
46.932443745211 30.660886136426 57.294936748013 46.983208795847 30.670201555163 57.269794081911 47.042403246514  30.68155535171 57.238864301041 
47.078950882416 30.688202406474 57.220958177569 47.150809693604 30.702186750398 57.182750392398 47.190781577107 30.710609453298 57.159385499249 
47.245984066974 30.722354234694 57.126748018529 47.305683264042  30.73649323275 57.086737308106 47.334157496883 30.743313632876  57.06740237463 
47.409806288313 30.763609578564 57.008898079689 47.414806989316 30.764937772486 57.005074823197  47.43021347414 30.769284049549 56.992461880144 
47.492392556368 30.785897223782 56.944600786217  47.51372362492 30.791918851809  56.92712445152 47.567582781752 30.805995121614 56.886697171375 
 47.61530100108 30.819986723918 56.845893213425 47.637676940195 30.826281666938 56.827631817893 47.699834555851 30.847476236485 56.764742688245 
47.700806190612 30.847799648116 56.763785520025 47.701085569434 30.847906382377 56.763465230244 47.760945294154 30.870879971509  56.69449653524 
47.774536977121   30.8763927885 56.677864272783 47.821327997295 30.895373336092  56.62059911164 47.845179586307 30.905581625092 56.589660232456 
47.883613550647 30.921980512136 56.539971716633 47.917477439913 30.937132214105 56.493886656535 47.948748757388 30.951051043775   56.4515688284 
47.991268925851 30.972112981278 56.387022174035 48.014197750401 30.983381055167 56.352509156852  48.05234315655 31.006434177302 56.280965785914 
 48.06566026446 31.014449512612 56.256096676229 48.073633024734 31.019911562362 56.239032176929 48.110456867704 31.044244105003 56.163151826961 
48.144398019946 31.068974828632 56.085658377064 48.149661897828  31.07269887731 56.074005402874 48.157253474703 31.078563158627 56.055581073832 
48.186130273932 31.100369821022 55.987138114715 48.202910647165 31.113765955219 55.944990465124 48.220504352095 31.127346446359 55.902324840989 
48.248964721122 31.151351883495  55.82662611638 48.252020368817 31.153906302687  55.81857390926  48.25339684925 31.155236730833 55.814357136312 
48.281702363882   31.1805130838 55.734473647594  48.29431321526 31.193517853778 55.693165272827    48.308920053 31.207630956236 55.648434552509 
48.329076696474 31.230410424527  55.57587185067 48.333933105913 31.235744531308 55.558894898663 48.347542784551 31.253765971678 55.501239622842 
48.355769891168 31.264620152452 55.466517482068 48.357594531864 31.267687363395  55.45665228215   48.3743370516 31.294304204386 55.371140225357 
48.380231625426 31.306452026154 55.331926739513 48.389394993526 31.324066553109 55.275132241731 48.398086316722 31.346896207269 55.201183224926 
 48.40102845325 31.353607288711 55.179486184592 48.406253917446 31.370817005539   55.1235997413  48.40983865492 31.382783488902 55.084734865831 
 48.41062083688 31.387339764952 55.069874849543 48.416278333364 31.411668240728 54.990686821934 48.417101858545 31.426962308872 54.940614131978 
48.418546588671 31.440669314909 54.895812774419 48.416077902646 31.466329948453 54.811389718749 48.415901735176 31.470181871331 54.798737672456 
48.413349047106 31.482100991937 54.759374143853 48.409190314899 31.501080137718 54.696684489115 48.407025890571 31.507432245587 54.675620642203 
48.399506896389 31.533218196355 54.590248430146 48.390338192866 31.552904015334 54.524707225497 48.384252358463 31.567861997363 54.475000562055 
48.375291939491 31.582646653965 54.425556050264 48.362639365772 31.601402758952  54.36269282486  48.34463969092 31.625708544566 54.281058359867 
48.340693596515 31.630592245057 54.264620644691 48.328362571018 31.645448647516 54.214581661467 48.319162811406 31.656711684929 54.176661612819 
48.316400997391  31.65987789801 54.165982990126  48.29528921578 31.681993753327 54.091199290246 48.290843921258  31.68662599873 54.075533086697 
48.265629638799 31.710400630912 53.994871890171 48.263004996886 31.712870551241 53.986491537766 48.236207105424 31.736129017446 53.907354481435 
48.229995167567 31.741385736225 53.889451923098 48.207810512557 31.759437381017 53.827883421088 48.192578787764 31.771603775794 53.786357849831 
 48.18300628038 31.779063260412 53.760872715398 48.164238943872 31.793712318206 53.710827928241 48.152197234277  31.80283575318 53.679622370128 
48.132030861001 31.818310859644 53.626719286594 48.117136371592 31.829554612132 53.588255669715 48.094699939725 31.846866467482 53.529086649952 
48.079622837543 31.858212496432 53.490268134891 48.050187236598 31.880700329657 53.413377479717 48.039554033539 31.888519283124 53.386600358492 

POLYGONS 1 427
426 0 1 2 3 4 5 6 7 8 9 10 11 12 13 14 15 16 17 18 19 20 21 22 23 24 25 26 27 28 29 30 31 32 33 34 35 36 37 38 39 40 41 42 43 44 45 46 47 48 49 50 51 52 53 54 55 56 57 58 59 60 61 62 63 64 65 66 67 68 69 70 71 72 73 74 75 76 77 78 79 80 81 82 83 84 85 86 87 88 89 90 91 92 93 94 95 96 97 98 99 100 101 102 103 104 105 106 107 108 109 110 111 112 113 114 115 116 117 118 119 120 121 122 123 124 125 126 127 128 129 130 131 132 133 134 135 136 137 138 139 140 141 142 143 144 145 146 147 148 149 150 151 152 153 154 155 156 157 158 159 160 161 162 163 164 165 166 167 168 169 170 171 172 173 174 175 176 177 178 179 180 181 182 183 184 185 186 187 188 189 190 191 192 193 194 195 196 197 198 199 200 201 202 203 204 205 206 207 208 209 210 211 212 213 214 215 216 217 218 219 220 221 222 223 224 225 226 227 228 229 230 231 232 233 234 235 236 237 238 239 240 241 242 243 244 245 246 247 248 249 250 251 252 253 254 255 256 257 258 259 260 261 262 263 264 265 266 267 268 269 270 271 272 273 274 275 276 277 278 279 280 281 282 283 284 285 286 287 288 289 290 291 292 293 294 295 296 297 298 299 300 301 302 303 304 305 306 307 308 309 310 311 312 313 314 315 316 317 318 319 320 321 322 323 324 325 326 327 328 329 330 331 332 333 334 335 336 337 338 339 340 341 342 343 344 345 346 347 348 349 350 351 352 353 354 355 356 357 358 359 360 361 362 363 364 365 366 367 368 369 370 371 372 373 374 375 376 377 378 379 380 381 382 383 384 385 386 387 388 389 390 391 392 393 394 395 396 397 398 399 400 401 402 403 404 405 406 407 408 409 410 411 412 413 414 415 416 417 418 419 420 421 422 423 424 425 

CELL_DATA 1
FIELD FieldData 6
ClosedSection 1 1 int
1 
SectionArea 1 1 double
        35.8426 
SectionLength 1 1 double
        21.3929 
SectionMinSize 1 1 double
        3.10443 
SectionMaxSize 1 1 double
        3.62884 
SectionShapeFactor 1 1 double
       0.855488 
