# vtk DataFile Version 4.2
vtk output
ASCII
DATASET POLYDATA
POINTS 422 double
36.459231498525 47.428921114551 43.546252159993 36.490815881224 47.434435900541 43.581347595248 36.528281824919 47.444620775754 43.636068087667 
36.559166316696 47.451347638235 43.675179854191 36.596741960334 47.462262164422 43.732575031874 36.634323071134 47.470117308481 43.778980600196 
 36.67242788743 47.479217940562 43.830114540617  36.72277408749 47.488232145086 43.886860515399 36.749751464648 47.494293097539 43.921689369339 
 36.82487336222 47.507092063207 44.004020715477 36.826465434789 47.507483493222 44.006197378674 36.830502949175 47.508222437608 44.010805790553 
36.897030977563 47.521830924507 44.091887875374 36.931332558493 47.527245003352 44.127936094705 36.965193784924 47.534748160317  44.17127724953 
37.029577760233 47.545556919558 44.241262684323 37.031767501972 47.545954574625  44.24375087525 37.033111563687 47.546153779287 44.245116888003 
37.093444292392 47.557293601654 44.314331767145 37.134897283352 47.564160107097 44.359058464882  37.15168208107 47.567627865859   44.3796387401 
37.168102776337 47.571551188288 44.401679681614 37.204178609406 47.580571093112 44.451541919181 37.253735760569 47.591396895125 44.514415147526 
37.261563898142 47.593540801761 44.525905500819 37.268622570805 47.594912945838 44.534250659163 37.323915380405 47.606330098278  44.60202358702 
37.394303113774 47.617851463447 44.677474098782  37.39587420759  47.61810483952 44.679144589092 37.397637045474 47.618341245165 44.680846873904 
37.466012804847 47.630879617506 44.758978034072 37.530099000695  47.64167921305 44.828786473835 37.543214559902 47.645111570788 44.847464321611 
37.554764470069 47.648307280291 44.864534415887 37.612644965538 47.660526569161 44.936441353613 37.640280407566 47.667480169661 44.974795842877 
37.675134235536 47.674908243602 45.018347462544 37.713093258113 47.683810994594 45.068699885841 37.738302091446 47.689454230935   45.1011722521 
37.788559930846 47.701089171755 45.167291691773 37.806688232414 47.703806392083 45.185825315658 37.880546521563 47.713777737449 45.257385766823 
37.892675315185 47.713775227966 45.263244843124  37.99299397558   47.7121622744 45.305985233431 38.006366252555 47.710999222346 45.308276136257 
38.117385036839  47.70162402099 45.328303918885 38.137121389805 47.699651385378   45.3307650516 38.232666997006 47.686582156105 45.330034163535 
38.279532727895 47.679748072359 45.328153881903 38.338118678651 47.667704913348 45.313227991182 38.419561592974 47.650777445232 45.291811489101 
38.442361059523 47.644615372104 45.280702097761 38.544321796687 47.620139071984 45.242089733989 38.550094249715 47.618418717875 45.238701360619 
38.666852464603 47.592261350673 45.201208223105 38.675633329099 47.589990345806 45.197296895274 38.793437172038 47.566893449497 45.171305814687 
38.817831727932 47.561391709615 45.163340706138 38.888902563744 47.547965435691 45.149485706425 38.939990567186 47.539257459364 45.142915392356 
38.964623168557 47.535139362545 45.140036835588 39.051727546106 47.519353672652 45.125461804342 39.129477637708 47.505180809335 45.112155859111 
39.156343304222 47.499867088153 45.106061855754 39.208602403989 47.489923728693 45.095619446717 39.255907530135 47.481052272519 45.086631542259 
39.281374973067 47.476322673848 45.081959789335 39.350728454499  47.46291332424 45.067334716225 39.427642418556 47.448492252429 45.052732435354 
 39.44159374101 47.445744332658 45.049609114052 39.461489803508 47.442067925011 45.046025922491 39.530700490021  47.42952977806 45.034461964147 
39.589219148828 47.419260835766 45.025878216037 39.615925058074 47.414420432167  45.02140753346 39.642935824669 47.409566815016 45.017036869615 
39.699151718943  47.39946296156 45.007932167883 39.746073868929 47.391037283767 45.000360640148  39.76973935065 47.386716151569 44.996284677232 
 39.83929830061 47.374066493651 44.984488558925 39.852909468486  47.37159777348 44.982203820256 39.943667621503 47.355250068113 44.967377238329 
39.952569697103 47.353674225113 44.966022246861 40.060381999798 47.334661915806 44.949872889023 40.063692695346 47.334090406005 44.949421238324 
40.131561851879 47.322407592225 44.940281410177 40.181679197651 47.313767317425 44.933484726579 40.183935266658 47.313380319671 44.933185777117 
40.305371374116 47.292732777815 44.917752486805 40.307846475998 47.292298256486 44.917388758176 40.336464858803  47.28739065849 44.913601931918 
40.425792853759 47.272044032025 44.901680259974 40.433332554873 47.270806909368 44.900883141747 40.541382882857 47.251851216917 44.885052366537 
40.555958915383 47.249296581811 44.882925754501 40.661672755693 47.230034663524 44.864864292541 40.667521872504 47.228927326837 44.863715560715 
40.752688932436 47.212804515802 44.846991961433 40.779838824823 47.207657232447 44.841633476198 40.781694490792 47.207282732776 44.841185710904 
40.796826218176 47.204040614367 44.836857848606 40.890069650007   47.1839665064 44.809844845951 40.901527789045 47.181209682315 44.805483292119 
 40.99036726173 47.158474454729 44.766778276787 41.021239077192  47.14965073869 44.750011218103 41.082906333371  47.13132619239 44.714007301435 
41.124347457529 47.116871646845 44.682122457087 41.156719060394 47.105138352423 44.655627003339 41.212255548696 47.083930489265 44.606297270944 
41.220072942815 47.080866565687 44.599070872076  41.23480061732 47.075579405302 44.587199757639 41.284494444952 47.057833195611 44.547480859633 
 41.32379650162 47.044481748363 44.518524496389 41.354085591685 47.033942275366 44.495310850825 41.386906710577 47.022342426958 44.469512346617 
41.429303352435 47.007541618348 44.436845684859 41.470671045015  46.99246273315 44.402682082374 41.507293172527 46.978893175687 44.371645466616 
41.540968677181 46.965626774924 44.340272461965 41.585020425971 46.948105800881 44.298633105262 41.628526482736 46.929751253504 44.253734734317 
41.659748518307 46.916518056299 44.221294003659 41.687796691441 46.903838133832 44.189305607664 41.729244099321 46.885044988085 44.141835362608 
41.770558693046 46.865185742073 44.090470398588 41.793782167028 46.853735243524 44.060565018302 41.813959338261 46.843202746655 44.032484139296 
41.852739290598 46.822702752057 43.977590690082 41.900585041774 46.795870133721 43.904330512051 41.908728301718 46.791159629668 43.891345665121 
41.913669950275 46.788125658648 43.882835555803 41.961111132444 46.758886104521 43.800731603934 41.994615210882 46.737572187582 43.740361212672 
 42.01133260733 46.727139760008 43.710965988111 42.032625745537 46.713140460935 43.670968929977  42.05592569074   46.6974256082 43.625778870127 
42.079055108934 46.681525433852 43.579840452579 42.097379679232 46.668954470984 43.543539119353 42.111626598803 46.659109024828 43.515057644908 
42.136895541039  46.64142791551 43.463755523359 42.174584645268 46.614685414139 43.385905193914 42.175475538859 46.614041308571 43.384021972544 
42.176781176187 46.613076185159 43.381186004396 42.213310221411 46.586194272407 43.302273520672 42.238648155662 46.566273412534 43.242957432012 
42.249755324263 46.557352192833 43.216277612594 42.261496228462 46.547002060996 43.184770371971 42.283304142034 46.527344241114 43.124691499825 
42.305752181352 46.506369929936 43.060192222326 42.317327969241 46.495657366155 43.027302890476 42.327849185736 46.486261696381 42.998634895868 
42.353388248418 46.462390066473 42.925221135711 42.388305276823 46.428319056927 42.819698557206  42.38923466599 46.427426657862 42.816941850606 
42.389753973628 46.426869454419 42.815191086702 42.419103147347 46.391504097432 42.702324150645 42.433078137227 46.373799339933 42.645472877969 
42.446683361554 46.354675151526 42.583342740866 42.470548929345 46.323562747133 42.483103465749 42.474275313338 46.318480722243 42.466646806243 
42.483139406418 46.305206806948 42.423242668024 42.497241511924 46.283654487941 42.352628740018 42.501193286493 46.275143413367 42.323960670634 
42.511170536562  46.25141677395 42.243538817294 42.517400346363 46.229536414877 42.167937517576 42.519522320793 46.220663440398 42.137083869486 
42.522556513394 46.205182499025 42.082929369154   42.5251554336 46.189738162443 42.028695797244 42.526117203043 46.180680873586 41.996618589328 
42.527132833443 46.158549961415 41.917594362549 42.525930940969 46.134701085213 41.831324679346 42.525068253322 46.124070320961 41.792711328827 
42.521539113709  46.09733608517 41.694948690978 42.519984148177 46.091116304179 41.671848916713 42.513441867803 46.064394686421 41.572673812199 
42.511474116968 46.060253144622 41.556841367922 42.499094303679 46.036515211526 41.465562253251 42.493149374133 46.027724594733 41.431101624003 
42.480313447661 46.010576603785 41.363279269738  42.46509523418 45.990652987917 41.284331604587  42.45948741848 45.983597243496 41.256267412682 
42.445572271936 45.968383555248  41.19487279839 42.434494638503 45.956716575219 41.147594215912 42.427628842928 45.951086536206  41.12404390477 
42.403176465465  45.93115191138 41.040589057387  42.37431812164 45.910906413257 40.953885580171 42.367593623963 45.906124488181 40.933450875201 
 42.35646387432 45.898753984639 40.901584169928  42.32948066461 45.881533392019 40.826656291933 42.308625512302 45.869320092432 40.772684291429 
42.288000435618 45.856942374373 40.718232855073 42.270346179167 45.847443777763 40.675563330284 42.246372675274 45.835348457776 40.620506521013 
42.216036271623 45.820861020601 40.553776450589 42.209580805891 45.817870080061  40.53990685298 42.201408171162 45.814179733311 40.522693520793 
42.173067192816 45.801288980041 40.462665697337 42.133273734558  45.78449629412 40.383077482422 42.132714679805 45.784261278541 40.381962600454 
42.132358608149 45.784125577474 40.381302758377 42.086707541877 45.766630757829 40.296357802345 42.057374719487 45.755875717843 40.243523653985 
42.036454844661 45.748228356186 40.205925597238 41.996454263084 45.733578670832 40.133936900061 41.984991292382 45.729345986042 40.113183051969 
41.979474818115 45.727354350999 40.103358222734 41.932543525839 45.710593008511 40.020429232227 41.904117632126 45.701025224801  39.97229964045 
41.879935303209 45.693171742311 39.932382574296 41.832858671002 45.678045106441 39.855256710639 41.825251627674 45.675716371876 39.843209245693 
41.790639611388 45.664504189519 39.786178447147 41.769284075262 45.657527696124 39.750780017433 41.765395265473 45.656169230396 39.744017632262 
41.711643105614 45.639081058623 39.656614317078 41.693527174518 45.633020741418 39.626075046455 41.650166914792 45.621114213154 39.562316955257 
41.612221265793 45.609337332755 39.501644354476 41.587763438062 45.602838585386 39.466461514413 41.527558967465 45.583961277769 39.369508170872 
41.524716725576 45.583170695645 39.365292517194 41.516129788663 45.580426164883 39.351277023597 41.461736697309 45.562363876339 39.260063648159 
41.448914978955 45.557399641042 39.236023981779 41.397396937291 45.541505534897 39.153991803198 41.377291748782 45.534728869893 39.119916286983 
41.324577854455 45.523037038481 39.052404165055 41.299325253037 45.517398647237  39.01992803141 41.248348444433 45.508282568857 38.962510929477 
41.209361864168 45.499858244066 38.913380327152 41.177011162223 45.492985116919 38.873033662193 41.121529391202 45.477605685673 38.790932980886 
41.108277214192 45.474538949336 38.773502700446 41.051578424323  45.45951526226 38.692091383645 41.038191010359 45.455653441939 38.671738964203 
41.034896971413 45.454588129261 38.666317626907 40.970582774583 45.436582901764 38.570509289787 40.944561345611 45.428584954919 38.529183383921 
40.903776568352 45.417354921351 38.469101971987 40.845558494934 45.402616143104 38.387979270548  40.82905947288 45.399170739194 38.367617578107 
40.788087228388 45.391875871666 38.321584382547 40.752128461016 45.384440104416 38.277470534786 40.731230734264  45.38120269538 38.255728001257 
40.676896762435 45.373116821928 38.200388144035 40.617439675467 45.365610313629 38.144651285655 40.617220855838 45.365581987878 38.144443643981 
40.548944490431 45.357167062195 38.081175973713 40.542149174578 45.356487111028 38.075445256605 40.465078143088 45.349821711417 38.014208581433 
40.448099446841 45.348835371048 38.002450145882 40.369549461795   45.3449546364  37.95050313589 40.342474379749 45.343896628303 37.933602417352 
40.266356460465 45.341782105603 37.889178015963 40.237012193098 45.340903396046 37.871823644908 40.161002364387 45.339796803614 37.831072998048 
40.132283155359 45.339901931798 37.817555934682 40.057795426281 45.341382383997 37.786836864641 40.023276330244 45.343119775677 37.776378395141 
39.957508020533 45.347223853156 37.759304506473 39.903347602564  45.35104722331 37.746838118693 39.858951508483  45.35441816487 37.737470297346 
39.772388448068 45.360709177392 37.718193177678 39.757043154342 45.361922737237 37.715129172423  39.70849129316 45.366340145094  37.70751064575 
39.648023923203 45.371448605608 37.696610145069 39.627563476653 45.373575100376 37.694351495627  39.53277647865 45.384273470595 37.686930995431 
39.462919776517 45.392918795172 37.684195625189 39.401808929014 45.401099670175 37.684022879672 39.330135409317 45.411900398148  37.68815279582 
39.263190625236 45.420917317371 37.688161382075 39.160825368995 45.436867528903  37.69594409124 39.135106560024 45.440808941013 37.697662302368 
39.124100405288 45.442774403825 37.699399199245 39.013405954341 45.461513498877 37.713172481012 38.984013942445 45.467124057779 37.719110728164 
38.891940449656 45.483990446212 37.735164539289 38.877709223015 45.486693920591 37.737992747976 38.842235672938 45.493606683634 37.745667430039 
38.774666220052 45.506302675626 37.758592573686 38.741858639382 45.512862842155 37.766290224738 38.673021436873 45.526834268836 37.783184604889 
38.590954900511 45.544136969406  37.80564758651 38.572338145201 45.548105357976 37.810898803516 38.531941029721 45.557226176111 37.824124856363 
 38.47468720986 45.569964367143 37.842192478124 38.451420065876 45.575398275669 37.850459329791 38.375721754973 45.593621390689 37.879310372046 
38.328264010972 45.605461294773 37.898889968632 38.272612396829 45.619539649701 37.922547924271 38.204862042419 45.637041455024 37.952652666563 
38.173433496262 45.645409966638 37.967514836768 38.086793913071 45.668915627035 38.010052330242 38.081425654465 45.670359890957 38.012644276436 
38.079625164517 45.670857951195  38.01356268557 37.989581843656 45.696928025108 38.063667248869 37.978811177928 45.700069328115 38.069742832128 
37.899342773397 45.724529095902 38.119177924642 37.890098199815 45.727369846326 38.124911979178 37.888671855427 45.727823004589 38.125850074317 
37.801419837752 45.755636109718 38.183567763111 37.778718686512 45.763094365026 38.199381858742 37.709871317561 45.785697883934 38.247286129829 
37.663741867901 45.801326832574 38.281122281591 37.618485161802 45.816618210059 38.314167798297 37.547467288486 45.841422910626   38.3689307165 
37.527035049877 45.848537141973 38.384606479962 37.461512964251 45.872223586623 38.438010487979 37.437602951878 45.880845026409 38.457419000116 
37.430037580454 45.883634727262 38.463782058563 37.351132471904 45.912693440187 38.530013533387 37.305594198962  45.92967141454  38.56898270819 
37.266895634313  45.94400830024 38.601771696314 37.197980830945 45.969877659051 38.661377391739 37.185064537144 45.974718300203 38.672520551205 
37.177203228885 45.977700294743 38.679431335544  37.10583837131 46.004608093228 38.741582735817 37.050557433848 46.025810016692 38.791014766437 
37.029774548101 46.033692799248 38.809282259521 37.000429670046 46.045014481986 38.835763181675 36.958045894932 46.061519994617 38.874561011306 
36.918706756165 46.077155242665 38.911705051168 36.890740604437 46.088184470239 38.937802240542 36.876101770483 46.094082684217 38.951911831854 
36.818643682359 46.117667133072  39.00885085578 36.794385570333 46.127698997477 39.033158559074 36.733093351864   46.1533613633 39.095708457061 
36.712653476867 46.161843783901 39.116296382719 36.641566619048 46.191923764767 39.189979825329 36.628510345678 46.197415189062 39.203393501958 
36.550782858154 46.231024430503 39.286544619541 36.546130842112 46.233033116719 39.291511044494 36.528164968854 46.241134127792 39.311925538127 
  36.4727214542 46.266153118827  39.37499350357 36.457092488562 46.273787747731 39.394862933215 36.408718423489  46.29701818751 39.454925001729 
36.367335456256 46.318015093532 39.510344458792 36.357725927539 46.322787978862 39.522844036613 36.308523819608 46.348149573076 39.590162649913 
36.294046168275 46.355426779776 39.609304897085 36.238589576842 46.384924028329 39.688456760576  36.21977581937 46.394634298754 39.714243048415 
36.177385850801 46.418327942692 39.778864589394  36.15545054309 46.430554076751  39.81218003553 36.144397729932 46.437078250651 39.830273650049 
36.095832524242   46.4648165353 39.906439772984 36.062404229731 46.484754518904 39.961903148637 36.036214962451 46.499880607053 40.003579900162 
35.987130004272 46.529818888548 40.087399071806 35.976013699802 46.536321825455 40.105385664492 35.922988294133 46.569865088563 40.200250962953 
 35.91726036937 46.573291143617 40.209789404427  35.87061004246 46.603326211615 40.295134237864 35.862813911962 46.608204278682 40.308889079373 
35.819956708106 46.636913565068 40.391305595197 35.818788986106 46.637677815339  40.39348655859 35.815801176242 46.639639355656 40.399088757936 
35.776764428121 46.665294792966 40.472381293318 35.758410101416 46.676916972202 40.505259283082 35.730547079411 46.693380773294 40.550932603357 
35.691787371502 46.717505356924 40.618858870494 35.682452220224 46.723094290612  40.63442322985  35.66061762192 46.738915423045 40.680704105863 
35.639607569188 46.754207711176 40.725483790091 35.633176858964 46.759702193407 40.742114000885 35.600774318783 46.787015749519 40.824573829519 
35.581697530739 46.805268553982  40.88092588934  35.56435903651 46.821349325872 40.930314923746 35.533801621786 46.854060499147 41.033060904109 
35.532861235023 46.855094892353 41.036322469958 35.531579887453 46.856779743248 41.041756145876 35.508563794474 46.887219555917 41.139989810822 
35.495946143463 46.908575528537 41.210616474445 35.490531648297 46.918164757626 41.242450629584 35.483594591057 46.933925922283 41.295723697893 
35.477549195463 46.948761315822 41.346101901826 35.475874784581 46.956467660418 41.372980426964  35.47097207166 46.979402883277 41.453013885309 
35.471158070859 47.001069466446 41.530951160475 35.471894460166  47.01050049283 41.565192789181 35.477255538807 47.038396900729  41.66801739098 
35.478064564606 47.041837505607 41.680770784477 35.478362068396 47.042950942525 41.684915261726 35.485445817007 47.073154642556  41.79686333821 
35.488424935174 47.082061925673 41.830308241379 35.494135438535 47.104081617975 41.912187063689  35.50169268605 47.119226643825  41.97025892917 
35.507936262701 47.133336536101 42.023976021705 35.521400752296 47.155314841507 42.109457637495 35.525315927336 47.161605063123 42.133952407361 
 35.54415530722 47.186957872016 42.234158950545 35.547289133793 47.190884921207  42.24978489526  35.54824091001  47.19180711126 42.253558775963 
35.579726199451 47.220737735987 42.372738569278  35.58864423646 47.226066663829 42.396199903642 35.624893796418 47.245813685966 42.484688355374 
35.636474403453 47.252250479946 42.513418405985 35.640760519948 47.254337010565 42.522988926155 35.689690475063 47.274307771119 42.618416228207 
35.707473928807 47.281262101102 42.652006798362 35.743225294235 47.293533941724 42.713396146753 35.769825438139 47.301720031855 42.755678035942 
35.805603422224 47.311594793194 42.808467639661 35.832818915158 47.318039197479 42.844789426803 35.884720948191 47.329592130609  42.91140970129 
35.901807713212 47.333135950485 42.932409357786 35.976270052941  47.34909824697 43.025787338426 35.978092426725 47.349470159194 43.028005298068 
35.980193703496  47.34988785607 43.030522697842 36.044333060209 47.363388828395 43.110062811222 36.071301874814 47.367992408087 43.139651232411 
36.100213650035  47.37368440289 43.174090325122 36.149153221142 47.382276908329 43.228640601392  36.15500244512 47.383529985337 43.235972806399 
 36.16113988821 47.384644808014 43.242947713106 36.211269417458 47.393364303153 43.298529978634 36.279123406251 47.401497656344 43.360581616491 
36.282451683927  47.40192311171 43.363720533746 36.289666429619 47.402811960684 43.370404739936 36.354561200356 47.411857251799 43.434301225088 
36.377770975669 47.415186751209 43.457493240025 36.423728592338 47.421880586752 43.503778946442 
POLYGONS 1 423
422 0 1 2 3 4 5 6 7 8 9 10 11 12 13 14 15 16 17 18 19 20 21 22 23 24 25 26 27 28 29 30 31 32 33 34 35 36 37 38 39 40 41 42 43 44 45 46 47 48 49 50 51 52 53 54 55 56 57 58 59 60 61 62 63 64 65 66 67 68 69 70 71 72 73 74 75 76 77 78 79 80 81 82 83 84 85 86 87 88 89 90 91 92 93 94 95 96 97 98 99 100 101 102 103 104 105 106 107 108 109 110 111 112 113 114 115 116 117 118 119 120 121 122 123 124 125 126 127 128 129 130 131 132 133 134 135 136 137 138 139 140 141 142 143 144 145 146 147 148 149 150 151 152 153 154 155 156 157 158 159 160 161 162 163 164 165 166 167 168 169 170 171 172 173 174 175 176 177 178 179 180 181 182 183 184 185 186 187 188 189 190 191 192 193 194 195 196 197 198 199 200 201 202 203 204 205 206 207 208 209 210 211 212 213 214 215 216 217 218 219 220 221 222 223 224 225 226 227 228 229 230 231 232 233 234 235 236 237 238 239 240 241 242 243 244 245 246 247 248 249 250 251 252 253 254 255 256 257 258 259 260 261 262 263 264 265 266 267 268 269 270 271 272 273 274 275 276 277 278 279 280 281 282 283 284 285 286 287 288 289 290 291 292 293 294 295 296 297 298 299 300 301 302 303 304 305 306 307 308 309 310 311 312 313 314 315 316 317 318 319 320 321 322 323 324 325 326 327 328 329 330 331 332 333 334 335 336 337 338 339 340 341 342 343 344 345 346 347 348 349 350 351 352 353 354 355 356 357 358 359 360 361 362 363 364 365 366 367 368 369 370 371 372 373 374 375 376 377 378 379 380 381 382 383 384 385 386 387 388 389 390 391 392 393 394 395 396 397 398 399 400 401 402 403 404 405 406 407 408 409 410 411 412 413 414 415 416 417 418 419 420 421 

CELL_DATA 1
FIELD FieldData 6
ClosedSection 1 1 int
1 
SectionArea 1 1 double
        41.3177 
SectionLength 1 1 double
        23.2775 
SectionMinSize 1 1 double
        3.26439 
SectionMaxSize 1 1 double
         4.2649 
SectionShapeFactor 1 1 double
        0.76541 
