# vtk DataFile Version 4.2
vtk output
ASCII
DATASET POLYDATA
POINTS 326 double
51.419635412914 39.691434971099  39.88201853329 51.395637016201 39.637688940433  39.91634521754 51.362468953986 39.562857980647 39.962995824195 
   51.328136294 39.485035578434  40.01075911264 51.312041030611 39.447679880954 40.031891734059 51.287384174457 39.392193623521  40.06677698363 
51.253494939028 39.315380163175 40.113928903116 51.244215470518 39.294345090677 40.126836757567 51.232948812205 39.268553158119 40.142144798518 
51.202879399747 39.201496217903 40.185567417816 51.181127277517  39.15133413536 40.214593060746 51.164782396938 39.113763139165 40.236578831485 
51.142913644531 39.062467458834 40.264512196012 51.129085490782 39.030732332041 40.283186023225 51.118045148409 39.005109774575 40.297683280822 
 51.09461964934 38.950875167477 40.328633583402 51.069088803608 38.889600720894 40.359240045374 51.060910291213  38.87049215307 40.369794966393 
51.053764451735 38.852725347151 40.377471394975  51.02725671826 38.787495551141 40.406924130976 50.994627863449 38.701694082337 40.435227192001 
50.994079487971 38.700289204453 40.435756470523 50.993697663321 38.699228030004 40.436005233586 50.961199261206 38.611940905584 40.461555835347 
50.940161519572 38.550420738026 40.470857780844 50.928943572507 38.518585979703 40.477217272829 50.908826557049 38.456004446461 40.480694336877 
50.898374543775 38.423800724656 40.482950016459 50.892958039911 38.405595718425 40.481930677626 50.869173250786 38.328779396235 40.481964738197 
50.849012745036 38.260106942244 40.476853744896 50.841667509688 38.233879941944 40.473249553168 50.824126776866 38.170937493285 40.464193355739 
50.815177512384  38.13923052524 40.460159158573 50.811918928387 38.127685762216 40.458690669073 50.788905117414 38.043562486955 40.444584010305 
50.773860875624 37.988341819344 40.435032100464 50.763481072251 37.949114493044 40.426814136802 50.744791132019 37.878023919786 40.411356380356 
50.738124534673 37.852996602362 40.406319386927 50.734383070703 37.838665321057 40.403080712785 50.713141136724 37.756056281856  40.38289782135 
50.693389097377 37.677066540097 40.360991659064 50.688653599435     37.65799341 40.355544075893 50.682403476609 37.632229260143 40.347501750422 
 50.66448320623 37.559440214998  40.32600392299 50.651073580253 37.504020388457 40.308542894259 50.640650896381 37.460129829566  40.29379456834 
50.628551780564 37.408034544798 40.275021268096 50.617337992324  37.36088097111 40.259252194335 50.608010379471 37.320507825524 40.244474484702 
50.594725219447 37.262041365617 40.222035999816 50.580729163641 37.198951942427 40.196240008918 50.572848997755 37.163914177361 40.182413717869 
50.565568830746 37.130698444076 40.168419510649 50.552190886537 37.068575151548 40.141135854156 50.537792071019 37.000246391062 40.109656025885 
50.531823754874 36.972328158609 40.097190806945 50.527205204842 36.950384024667 40.087054302475  50.51163312016 36.874190913958 40.049694670097 
50.492600670858 36.778220585997 39.999925737584 50.492106308079  36.77564691085 39.998516283453 50.491619745109 36.773009587483 39.996978599852 
50.473046806278 36.676293303459 39.943990504875 50.457746262892 36.593949143143 39.896487143751 50.454657971401 36.578254683184 39.888235506184 
50.450766527396 36.557596267421 39.876564381563 50.436871057774 36.482223106902 39.832570650345 50.427623844161 36.429752909037 39.799958762304 
   50.419972476 36.389044777015 39.776881796268 50.408302721942 36.324808646033  39.73858401308 50.402915245012 36.294258992799 39.719612682254 
50.400265652334 36.277961848597 39.708445699988 50.386334227239 36.200108986686 39.661040740724 50.377895001025 36.146164537607 39.622533730305 
50.371573096407 36.109233130627 39.598708741519 50.360578702347  36.03532121734 39.543297216876 50.357868449723 36.018976862756 39.532344934809 
50.347736046653 35.948166313274 39.477390330968 50.344901364514  35.92826278815 39.461881381792 50.344404044301 35.923778858634   39.4577287059 
50.333967586769 35.839903359877 39.385335569596 50.331581835399 35.810081449351 39.353418502831  50.32560337464 35.742826894479 39.284227682044 
50.324174615983 35.717608380027 39.254492411037 50.320546833357 35.656483223364 39.183187518585  50.31960453468 35.630494676354 39.150072679509 
50.318037190532 35.578697567197 39.082623520022 50.318064356931 35.542554445406 39.030332597258 50.318200810047 35.506688056775 38.977931506729 
50.321200367574 35.458050057826 38.893747824795 50.323155816707 35.437019198635 38.854277013543 50.330129535319 35.390417455201 38.754501983088 
 50.33228017091 35.377408918429 38.725699452132 50.343053329333 35.331503718843 38.609214176713 50.344089123202  35.32673274103 38.597498803285 
50.351057590139  35.29854232937  38.52432076788  50.35615742275  35.27647303575 38.468689984392 50.356950595806 35.272823418645  38.45972429785 
50.368138514353 35.226952709103 38.341354910039 50.371645200555 35.213882007534 38.306139838037 50.382221183255 35.186263052416 38.216965902082 
50.396826143054 35.167834055604  38.12226974741 50.400583432637 35.160309327863 38.093890527046 50.415864936946 35.144857328034 38.000336474658 
50.420679452152 35.139025800005 37.969471499984   50.4220009669 35.137991921773 37.961817544294 50.441481733656  35.11892035216 37.843459690857 
50.447113871336  35.11624205809 37.813333375458 50.463308192608  35.10559344853 37.722455741374 50.471197809919 35.104266216826 37.683753483466 
50.488540483574 35.103117775436  37.60123275796 50.493412269946  35.10382037438 37.579531250825 50.501860722795 35.106958766049  37.54466842227 
50.515561549215 35.109691780585 37.484730425191 50.536070251376 35.119345993215 37.403038682098 50.540537995592 35.121187031993 37.384864166552 
50.543155040489 35.122960970506 37.375222012918 50.566892722564 35.133625291576 37.279932450918 50.582679531707  35.14386327879 37.221099894574 
50.594774154093 35.149916603589 37.173443203165 50.622163044484 35.166949049025 37.070320168697 50.623372152908 35.167567326547 37.065574832461 
50.627738004979 35.170845952732 37.049950232297 50.654333168358 35.189852958068 36.953377908808 50.662986115875 35.198545665386 36.925577961239 
  50.6887059435 35.220899550184 36.837917490165 50.706785756629 35.240690646704 36.782181114645 50.727252418342  35.25970509318 36.714194729689 
50.765243094285 35.303219573638 36.599859742149 50.765668846188 35.303662505268  36.59851386985  50.76631712001  35.30444287669 36.596617467075 
50.804008163482 35.349679615387 36.486165250037 50.834175001652 35.389747484592  36.40333587139 50.841508046935 35.399040304311 36.382556320022 
50.850526079169 35.411569656733 36.358591413552 50.878942100923 35.451347397131 36.283506785286 50.904212905902 35.489477302791 36.220709005074 
50.917023770925 35.508108767878 36.187866351051 50.930990844632 35.529701540821 36.153906638504 50.955443128625 35.567902816274 36.095028359783 
50.980412076557 35.608528802393 36.037240556323 50.994172560365 35.630379213849 36.004615946646 51.007009223474 35.651706567461 35.975543897476 
51.033099239538 35.695486734296  35.91708125186 51.062838842203 35.747120203309 35.852936206715 51.072137655286 35.763249423972 35.832857689955 
51.080157361633 35.777774090064 35.816427425383 51.111083042534 35.833884627587  35.75321370044 51.147561718069 35.902862165558 35.682678723133 
51.149291912623 35.906168697855 35.679383608028 51.150663332716 35.908899292538 35.676930107872 51.186107884505 35.979719902334   35.6138769602 
51.212803813109 36.035715793152 35.570219720833 51.220173421533 36.051311012079 35.558365746204 51.236028648877 36.085698287727 35.534068102536 
51.252989212519  36.12257026338 35.508202728211 51.257717474776   36.1328355412 35.500971947043 51.290490528654 36.204546947943 35.451660780227 
51.291858609065 36.207529576049 35.449586603998 51.294248511238 36.212779918716 35.446020929668 51.325118805785 36.281086958886 35.400668289883 
51.356981607526 36.352787108056 35.355585083387 51.362579856454 36.365396314465 35.347680758852 51.368391052495 36.378825851782 35.339967489911 
51.402031968162 36.456648182927 35.295429476421 51.429865474336 36.522106050541 35.260124264637 51.440369462922  36.54689451356 35.246924026506 
51.462648079366  36.60074437103 35.220765965239 51.474655775698 36.629828792916 35.206754654815 51.477955132645 36.637980973979 35.203136624308 
51.511096507978 36.719877700046 35.166808252753 51.511300661966 36.720392741495 35.166599692937 51.511799627216  36.72165779584 35.166098995142 
51.541845511374 36.797622973114 35.135643064849 51.563446166357 36.852772375217   35.1145217089 51.573642268146 36.879017142852 35.104858885818 
51.583069028598 36.903674527477 35.096492228766 51.609019808321 36.971421067599 35.073268725237 51.642725018215 37.061365076484 35.045925773015 
51.649769927722 37.080282771587 35.040380990801 51.655063617386  37.09486284246 35.036741214503 51.692283554593 37.197046426333 35.010675239984 
51.721092092428 37.278572842676 34.994015016022 51.737202712521 37.323883864635 34.984292466167 51.772241958864 37.425151017963 34.967071683975 
51.779380855061 37.445713794651 34.963462968156 51.810636820641 37.538226259568 34.951247014657 51.818152486603 37.560496904505 34.948346458299 
51.819904042884 37.565845414143 34.947898863459 51.853880807823 37.669554852225 34.939156958955 51.867710056202 37.712801275429 34.937091927484 
51.888575788777 37.778027120278   34.9339402939 51.918484521206 37.874020036894 34.933029276741 51.922980670704 37.888451830389 34.932894165227 
51.930062328512 37.911824074596 34.933607151257 51.956616060761 38.000532006954 34.937825209245 51.976538143854 38.068677016049 34.943286644447 
51.989399055347 38.112765713583 34.946952279787 52.000359086338 38.151118296284 34.951202341324 52.020840950844 38.222905189071  34.95930991746 
52.048665412661 38.322425804876 34.973208592123 52.051081439341 38.330964513121 34.974267104546 52.055313065832 38.346383896344 34.976790735149 
52.079934299027 38.436244691164 34.991683295101 52.094128398076 38.489370279024 35.002175378416 52.107449039166 38.538519755534 35.011001511456 
52.125766200694  38.60730141865 35.024865034177 52.135125260444 38.642489652467 35.032012893718 52.141456619514 38.666887694038 35.037704779126 
52.162857037718 38.746708070934 35.053123920013 52.190057070911 38.850778432776 35.076500609493 52.190411390566 38.852088206189 35.076738888457 
52.190844115841 38.853711960847 35.077064747118 52.218547716099 38.957568758759 35.097785237812 52.240553667612 39.040620375265 35.115044523549 
52.246716180148 39.063018657868 35.118637494588 52.253672198046 39.089483354965 35.124399540458 52.274022263236 39.167134098432 35.141584768816 
52.287839278565 39.224929037821 35.160574201474  52.29858357266 39.267989878445 35.172625457279 52.312344229949 39.327902725043   35.1949343793 
52.321074648174 39.365985951663 35.209191642647 52.326240440085 39.390292170061 35.220185660968 52.342304669883 39.461554361198 35.248133937241 
52.359232562376 39.545411092821 35.290232549291 52.360752538442 39.552481966415 35.293350572122 52.362417858929 39.561442655526 35.298518413994 
52.376711803939 39.639894477585 35.345097522193 52.385304503592 39.698273566088 35.389289314682 52.389158706561 39.721609701698 35.404998752676 
52.392091209997 39.744485097311 35.424340802301 52.398852517081 39.798681899912 35.471035614932 52.402640761816  39.84927420702 35.526390587624 
52.404578706953 39.867845191179 35.544157512827 52.405349004346 39.884371515786 35.564417803416 52.407786467727 39.931265067924 35.620732728639 
52.407694812627  39.97116816525 35.678750998031 52.408522880428  39.98875134563 35.700267251493 52.408658961884  40.00616598117 35.724766755395 
52.410348794957 40.048340048302 35.777756148857 52.411517138662  40.08543860256 35.825851745246 52.413063862627 40.111162828224 35.855766860019 
52.417189833056  40.16588718492 35.915510788182 52.418864583233 40.183917726579 35.933724901391 52.419383976859 40.191201925438  35.94181619869 
52.426227807399 40.262251851846 36.012449826065  52.42830250906 40.334203970767 36.106622448362 52.428365937057 40.335275407684 36.107873076264 
52.428377284908 40.335983398658 36.108841986522 52.431020376395 40.410966329732 36.204738670799 52.431295131576  40.44847449309 36.257591954433 
52.431957083822 40.481515956825 36.302193214761 52.430916920148 40.543733272089 36.396839493055 52.430966794075 40.547486964936 36.402024536544 
52.430914401689 40.549176516431 36.404707302753 52.429589867463  40.61431977994 36.504902438929 52.428299552329 40.642157987266 36.551096783821 
52.426803542432 40.677811849283 36.609530309869 52.424590348791 40.718007324917 36.677862600243 52.422399320257 40.742435769716 36.723335471887 
52.420446355091 40.773331242722 36.777031994571 52.415557898282 40.816344894462 36.861905548962 52.415089339558  40.82243702048 36.872882862938 
52.413916257243 40.830646372321 36.890200866848 52.409597347544 40.870727764279 36.968186769082 52.404402911363 40.894389166396 37.026556499246 
52.401350360541 40.915067997228 37.070634665184  52.39478491107 40.936613459231 37.132343110724 52.390445607638 40.955831985878 37.180313371195 
52.384801879906 40.968448612557 37.224837416633  52.37663422505 40.994430360994 37.300419177496 52.369345202252 41.005873272014 37.350920708076 
52.356506797622  41.02400386206 37.436949312443 52.346034358499 41.034094533196  37.50034242604 52.334347343798 41.044779837022 37.570256923383 
52.321388461022 41.051237293621 37.639999803893 52.309577546951  41.05649124307 37.702653096952 52.294703673778 41.058056537069 37.774264243757 
52.281124870133 41.057822201483 37.837239554933 52.266041351815 41.053633649393 37.901523859597 52.242798625748 41.037964441236 37.987282204191 
52.239351320884 41.035716112466 38.000110915665 52.234340294015  41.03160247328 38.017538606359 52.215466471668 41.018651838206 38.086849814551 
52.197378298478 41.003183421509 38.148863960979 52.190515107085 40.997616539845 38.172830268985  52.16293245795 40.968199939687 38.258983067942 
52.160880904165 40.965978929904 38.265343277261 52.145316013873  40.94616740937 38.309323912736 52.126386543373 40.922662859599 38.363662449971 
52.123614863929 40.919089700602 38.371428854402 52.090021149435 40.878389415329 38.469323889963 52.081944844583 40.868921950074   38.4933169571 
52.054334024598 40.841262809742 38.582137595165 52.039414749898 40.823833229703 38.626545717649 52.019090061692 40.802653567715 38.690745137695 
51.992835159672 40.766373818983 38.760801715084  51.98302800616 40.754069250957 38.788770460388 51.952505891416 40.710057743741 38.867564646202 
51.946739098661 40.702069792597 38.882924550904 51.944810326346 40.699321713028 38.887951566795 51.911545854636 40.653032884068 38.976245677917 
51.899858501315 40.635234584414 39.005052246331 51.875619110408  40.59741532429 39.063489225175 51.854441927264 40.560417868008 39.108834214888 
51.838469881667 40.533011830071  39.14375234928 51.809039466925 40.480452485689 39.205119464851 51.800466937504  40.46589291965 39.224076992603 
51.767137659677 40.409696810942 39.298374401674  51.76096787441 40.399561959497 39.312514773564 51.759341052767 40.396753118343 39.316046196897 
51.719831529987 40.330659471902  39.40487525552 51.705357008737 40.303105869404  39.43259794826 51.666444750292 40.226819440391 39.503931229404 
51.656284199986 40.206214593784 39.521568211897 51.612354535703 40.116463809897 39.596863326762 51.608261155934 40.107917353249 39.603614580194 
51.563053583047 40.012778095787 39.677091146963 51.561183468337 40.008872194622 39.680173613368 51.561011844642 40.008509028521 39.680449692078 
 51.51347577122 39.904435625761 39.751888918515 51.512817090732 39.902990972032 39.752875105974 51.468379197169 39.801949794631 39.814244850463 
51.466856303538 39.798538894349 39.816422758065 51.429474844999 39.713251144158 39.867627090213 
POLYGONS 1 327
326 0 1 2 3 4 5 6 7 8 9 10 11 12 13 14 15 16 17 18 19 20 21 22 23 24 25 26 27 28 29 30 31 32 33 34 35 36 37 38 39 40 41 42 43 44 45 46 47 48 49 50 51 52 53 54 55 56 57 58 59 60 61 62 63 64 65 66 67 68 69 70 71 72 73 74 75 76 77 78 79 80 81 82 83 84 85 86 87 88 89 90 91 92 93 94 95 96 97 98 99 100 101 102 103 104 105 106 107 108 109 110 111 112 113 114 115 116 117 118 119 120 121 122 123 124 125 126 127 128 129 130 131 132 133 134 135 136 137 138 139 140 141 142 143 144 145 146 147 148 149 150 151 152 153 154 155 156 157 158 159 160 161 162 163 164 165 166 167 168 169 170 171 172 173 174 175 176 177 178 179 180 181 182 183 184 185 186 187 188 189 190 191 192 193 194 195 196 197 198 199 200 201 202 203 204 205 206 207 208 209 210 211 212 213 214 215 216 217 218 219 220 221 222 223 224 225 226 227 228 229 230 231 232 233 234 235 236 237 238 239 240 241 242 243 244 245 246 247 248 249 250 251 252 253 254 255 256 257 258 259 260 261 262 263 264 265 266 267 268 269 270 271 272 273 274 275 276 277 278 279 280 281 282 283 284 285 286 287 288 289 290 291 292 293 294 295 296 297 298 299 300 301 302 303 304 305 306 307 308 309 310 311 312 313 314 315 316 317 318 319 320 321 322 323 324 325 

CELL_DATA 1
FIELD FieldData 6
ClosedSection 1 1 int
1 
SectionArea 1 1 double
        26.8693 
SectionLength 1 1 double
        18.4994 
SectionMinSize 1 1 double
        2.68801 
SectionMaxSize 1 1 double
        3.25207 
SectionShapeFactor 1 1 double
       0.826554 
