# vtk DataFile Version 4.2
vtk output
ASCII
DATASET POLYDATA
POINTS 198 double
50.978225898135 31.128021910859 43.257167115552 50.969586013553 31.128295031899 43.338530219819 50.967606528033 31.129222269247 43.376683555094 
50.964329999584 31.129241036636 43.405625294699 50.956745943796 31.129737458781 43.482837758419 50.944832955041 31.128489068537 43.558354433337 
50.942797957825 31.128399158988 43.574037706008 50.940413268072 31.128011328091  43.58604165304 50.926725259028 31.125881494587  43.65711684103 
50.916236510257 31.123826545752 43.702036194586 50.905138191532 31.121547508457 43.747204275928 50.885483085439 31.116879326154 43.812934750824 
50.873697159029 31.113947843664 43.849364364903 50.840568743869 31.104976938655 43.935267290191 50.830981243483 31.102278102996 43.957812230827 
 50.78290990174 31.087911457914 44.052013515497 50.776595520554 31.086049033066 44.064944583391 50.774734460608 31.085473385511 44.068152640413 
50.716711137454  31.06755970837 44.168930593362 50.691399409102 31.059469896427  44.20668168082 50.654513241128 31.047636010783 44.260684481478 
50.594433328141 31.027623243197 44.331993899608 50.594003714354 31.027479433316 44.332487915097 50.593051742433 31.027152803577 44.333402863607 
50.529111146393 31.005245451099 44.395561133315 50.501821096372  30.99576053431 44.419048794399 50.457448595776 30.980340579374 44.457286838376 
50.415955871841 30.965683245067 44.487669411951 50.376104756979 30.951675175793 44.518415256601  50.32274165948 30.932610534487 44.552658581033 
50.286554230697 30.919738192533 44.577145600333 50.223861247772 30.897180410109 44.613767115837 50.193129956115 30.886180948012 44.633028977618 
50.123326201849    30.861017571  44.67274259819 50.098534316781 30.852124343194 44.687838966763 50.022259412867  30.82451467783 44.728672506474 
50.004033706762 30.817954067672  44.73925671502 49.924564225972  30.78903390554 44.778322153237 49.914827114136 30.785509490744   44.7835390285 
49.865990182416 30.767679413691 44.806247063974 49.840137110117  30.75823429178 44.818125589164 49.830762925288 30.754791810002 44.822032546131 
49.771993503459 30.733246178964 44.847344688059 49.728098066064 30.717150753448 44.866187611637 49.688428949904 30.702483636577 44.880477122307 
49.639290418495 30.684367545567 44.899355947444 49.604184417296 30.671470352522 44.913869646806 49.557268745275 30.654191616457 44.932297150095 
49.518000081731 30.639635750538 44.945611724095 49.490541006344 30.629383754598 44.953260421796 49.432857460177 30.607991162977 44.972574856247 
49.358173753411 30.580127309242  44.99382285663   49.3476329024 30.576212849078 44.997233438032 49.328452461631 30.569049891583 45.002534720018 
49.260927347193 30.543701024239 45.018229701055  49.21557308245  30.52656914224  45.02638098714 49.172928902305 30.510507920499 45.035105077174 
49.115060038576 30.488580698465 45.043967856226 49.083073684758 30.476359472888 45.046582860074 49.047592318812  30.46266569861 45.046387779224 
48.987981175049 30.439755436239 45.048231438517 48.935160284686 30.419287482217 45.046087951386 48.885499679266 30.399820572286 45.039027838924 
48.766880103982 30.352895098969 45.012534691638 48.764073339965 30.351790824739 45.012044823043 48.763061149418 30.351395216045 45.011927303439 
48.760279427068 30.350271188915 45.010773727779  48.64803551777 30.304830124997 44.962285698629 48.580226301942 30.276676764482 44.917166452467 
48.562332353583 30.269344805501 44.907456633874 48.546476985085 30.262751275667 44.896667036913 48.487746609348 30.238072719736 44.850940859214 
48.449598295795 30.221660491376 44.812612936769  48.43334798119 30.214463588905 44.791644991638 48.403156875077  30.20086799409 44.747620123388 
48.362651121369 30.181617449212 44.665760620512 48.360881495333  30.18076984626  44.66203583308 48.359544573756 30.180086894075 44.658260430958 
48.321068216223 30.161272753666  44.56858550822 48.294160047464 30.146896990047 44.478381118559 48.286601531361 30.143188402044 44.460479840104 
48.280141998226 30.139680636887 44.437545065265 48.255751307599 30.126303216142 44.347957952034 48.244519660528 30.119146639341 44.284218557886 
48.230855845227 30.111619293909 44.233281385598 48.221863121387 30.106171749174 44.188621366008 48.211735815234 30.099109505111 44.117398755043 
48.198885472655 30.089471708129 44.011756236127 48.196604972878 30.088050237072 43.999527918434 48.195383868004 30.087341967676 43.994173156175 
 48.18035007826 30.076547620693 43.881435877219 48.172458952354  30.07104082606   43.8258507259 48.168195951561 30.066679890819 43.764544907783 
48.161693462471 30.059148419871 43.651183928196 48.161694125072  30.05895534583 43.646821197553 48.161780312114 30.058629620838 43.638720640844 
48.156095150026 30.051442659538 43.526020117507  48.15429398159 30.048250193974 43.469655034818 48.155230975034 30.045546553355 43.400488516715 
48.161662324628 30.041909749447 43.262442226174 48.162142309829 30.041873437411 43.257445106073 48.163028942312 30.042029903208 43.253258890873 
48.178797097502 30.041871205964 43.112434905804 48.188326702389 30.043688447445 43.070499571793 48.202981784206 30.045672189428 42.987710438722 
 48.22385345527 30.050278478742  42.90999453794 48.232966581776 30.052129043549 42.872436129652 48.269054493488 30.061122376644 42.761280473899 
48.269580010346  30.06124809332 42.759543441408 48.271671712313 30.061804834976 42.753901287803 48.309321021653 30.071607526546 42.647419760967 
48.323678943146 30.075634677116 42.613329187165 48.357257272423 30.085107084627 42.534827349484 48.411683488166 30.101818198993 42.438220507065 
48.415756440407 30.103032028571 42.430161990929 48.421819797217 30.104945798452 42.420574454116 48.477344398508 30.122275206517 42.328360080661 
48.521000676754 30.136458919403 42.268458500407 48.543437258972 30.143583033577  42.23393988387  48.57778919115 30.154883764457 42.189963228721 
48.612874159114 30.166348246187 42.143301628963 48.641459297368 30.175951716254 42.111217093231 48.685947682455 30.190554206038 42.053523264354 
48.740454595879 30.208820032781 41.991298125808 48.760134054911 30.215396274466 41.968413496377 48.785525275657 30.224010406375 41.941802476316 
48.830511296245 30.239058874886 41.889841412724 48.858533130194 30.248526533115 41.859594993346 48.898091071174 30.261906037088 41.817216491218 
48.956658637745 30.281658840867 41.753203808192 48.958755892641  30.28235812871 41.750730060663  48.96035817024 30.282895056501 41.748900630758 
49.015792606187 30.301429862776 41.684672395326 49.062518880776 30.317296207893 41.636020954123 49.080415459084 30.323389160834 41.617748120971 
49.115361861019 30.335504194637 41.586973113787 49.153138497171  30.34851992424 41.551889686855  49.17113766723 30.354833051185 41.537692425178 
49.239161351587 30.378838307516 41.487337687464 49.280191817302  30.39351083593 41.461321388839 49.336748701133 30.413884479148 41.428819313262 
49.388632876116 30.432798511818 41.404049548919 49.439351022944 30.451454380548 41.383602853138 49.496352247591 30.472628941889 41.365307071742 
49.544443123072 30.490620366993 41.352733582063 49.603270721814 30.512702464045 41.339021124271 49.648921363154 30.529966557793 41.331273765062 
49.708133171637 30.552452665598 41.323334245803 49.753700053954 30.569932292581 41.321179691923 49.818355344784 30.594851989474 41.320778283077 
49.859720415098 30.610853580029 41.321841647578 49.950039878475 30.645978008123 41.328347416525 49.975882751949 30.656045239287 41.330596353414 
50.010706118313 30.669801028683 41.337917977933 50.097637118669  30.70393594722  41.35158667882 50.203502319402 30.746090021725 41.381418540681 
50.210347281141 30.748796541937   41.3829175039 50.227321720338 30.755636196673 41.389521064019 50.320615395698 30.793113774777 41.423241753502 
50.346590217031 30.803748318197 41.437144372432 50.426779038148 30.836368313044 41.475309416992 50.469079446007 30.853967414088 41.504281670133 
50.523270712165 30.876264890073 41.535783199109 50.584656411811 30.902251019074 41.587905048152   50.6040842105 30.910292345259 41.600272330351 
50.643784725836 30.927190486088 41.636055446279 50.674512414803 30.940188459876 41.661923922417 50.688693893914 30.946424962612 41.679225933561 
50.733490093851  30.96561487978  41.72237413324 50.769566905261 30.981613449928 41.769397255695 50.785579541904 30.988690962767 41.789739720627 
50.834320830174 31.011175017023 41.872887113818 50.835628543811 31.011776440118 41.875076927301 50.843711476922 31.015676713608 41.892739417027 
50.886199934648 31.035717100479 41.975165670252 50.891943668747 31.038594271707 41.990100451399 50.929026054541 31.057830995732 42.101444358883 
50.932464734876 31.060060245055 42.121820664453 50.933654605916 31.061739691111  42.14936312715 50.954666413477 31.074041468612 42.244086073184 
  50.9602860754 31.080047826401 42.330714863265 50.962133972549 31.081564321476 42.348852804127 50.961702977391 31.082025742542 42.363016655759 
50.970246083465 31.088996714469 42.445968145354 50.970149910607 31.092120108695 42.517288612886 50.970145928772 31.092198881627 42.519100882259 
50.971011062976  31.09604455739 42.598353540654 50.971136634733 31.096489378492 42.607298548896 50.971159392765  31.09670937905 42.612065062579 
50.972026675677 31.101477405988 42.712113056929 50.971855008044 31.101517624456 42.714514798005 50.978294269986 31.108940889835 42.825984296169 
50.977896730185  31.10937382466 42.839214130685 50.983240702635 31.116169654376 42.946057912318 50.982070557585 31.116954398197 42.973951365381 
 50.98391855622 31.122167200462 43.075500337877 50.982176145677 31.123221921631 43.114467057352  50.98080120316 31.127181848433 43.215795103894 

POLYGONS 1 199
198 0 1 2 3 4 5 6 7 8 9 10 11 12 13 14 15 16 17 18 19 20 21 22 23 24 25 26 27 28 29 30 31 32 33 34 35 36 37 38 39 40 41 42 43 44 45 46 47 48 49 50 51 52 53 54 55 56 57 58 59 60 61 62 63 64 65 66 67 68 69 70 71 72 73 74 75 76 77 78 79 80 81 82 83 84 85 86 87 88 89 90 91 92 93 94 95 96 97 98 99 100 101 102 103 104 105 106 107 108 109 110 111 112 113 114 115 116 117 118 119 120 121 122 123 124 125 126 127 128 129 130 131 132 133 134 135 136 137 138 139 140 141 142 143 144 145 146 147 148 149 150 151 152 153 154 155 156 157 158 159 160 161 162 163 164 165 166 167 168 169 170 171 172 173 174 175 176 177 178 179 180 181 182 183 184 185 186 187 188 189 190 191 192 193 194 195 196 197 

CELL_DATA 1
FIELD FieldData 6
ClosedSection 1 1 int
1 
SectionArea 1 1 double
        8.91551 
SectionLength 1 1 double
        10.8385 
SectionMinSize 1 1 double
        1.42155 
SectionMaxSize 1 1 double
        2.04292 
SectionShapeFactor 1 1 double
       0.695841 
