# vtk DataFile Version 4.2
vtk output
ASCII
DATASET POLYDATA
POINTS 488 double
39.333696994246 41.868950187588 48.235215821612 39.421718683592 41.825408762825  48.23372110784 39.453314979814 41.809222834339 48.232472404383 
39.513515237462 41.778118005403 48.229752893857 39.568721545337  41.74917401607 48.226721957914 39.611283911394 41.727228105562 48.224857617186 
39.688476924089  41.68997892524 48.224744624118 39.717279359454 41.676608998171 48.225379149327 39.821451056893 41.634727414666 48.235962586766 
39.833331771592 41.629811869527 48.236991700207 39.899853078888 41.606899372835 48.248655751414 39.950009174347 41.590729239658 48.258865620177 
39.959284610805 41.588571186019 48.261819280147 40.058012511734 41.564396238267 48.291715958152 40.088207760601 41.558161246021 48.302343095114 
40.164117822599 41.540121887559 48.326032055884 40.213849834201 41.527434383937 48.340439064994 40.272557888416 41.509745344842  48.35397496069 
40.336507789387 41.490302454264 48.368496090826 40.382471510496 41.473817246088 48.375718848734 40.451993898066 41.450447560363 48.388647158476 
40.492425962694 41.434554058877 48.393218282047 40.559256734766   41.4105077776  48.40362157157 40.601108154139 41.393148908395  48.40719145895 
40.658336617051 41.370898874069 48.413976448756  40.71736718375 41.343636152914 48.415454771189 40.750992068933   41.3293373337  48.41787218005 
40.803036420915 41.302672174672 48.415809924287 40.843546122248 41.282682232954 48.415184585711 40.882940250666 41.260021464853  48.41045250041 
40.941603142497 41.228855399389 48.406707120053 40.983440265674 41.201681639152 48.397703061478 41.040502187264 41.163433645849 48.383904643114 
41.111603348047 41.103431408002 48.350908535928 41.133651634985 41.083698225649 48.339234187023 41.208364120861 41.005891758491 48.285670552024 
41.222226088196 40.990782594144 48.274870718394 41.284500025669  40.91403286106 48.214994084785 41.313073086461 40.873474957754 48.180680890368 
41.343212712843 40.829388788895 48.142816240085 41.380605403714 40.769965826274 48.089787294589 41.395979082356 40.747169337039 48.070077723441 
41.408020101248 40.728192794703 48.053204583188 41.446995621064 40.666973018427 47.998850829317 41.485867380917  40.60105944226 47.938424072418 
 41.49524329237 40.585908290886 47.924805743181 41.503976126176 40.570264570053  47.91016049401 41.542523460101 40.502826195615 47.847581730236 
41.578766617686 40.435864699934 47.784193414826  41.59291890219  40.41100346814 47.761087795051 41.602094379631   40.3953807268 47.746742204064 
41.648255375039 40.313278292941  47.67008262213 41.662983819881 40.287498769827 47.646156481311 41.696402030691 40.225431780978 47.587293162703 
41.717447913055  40.18438171209  47.54771091389 41.737403612186 40.141270835582 47.504818518906 41.762646671933 40.082284531777 47.444860806283 
41.771779623647 40.058297397127 47.419780815263 41.797879299002 39.981111607791 47.337051843781 41.799430183843 39.975839116822 47.331257746677 
41.806002729367  39.95041104834 47.302755084788 41.821154579418 39.893921122348 47.239774079954  41.82385666222 39.882645841638  47.22700462307 
41.837888277823 39.813579628772 47.147232915319 41.842494795804 39.787120496915 47.116198617239 41.849758828219 39.735373239196 47.054427991006 
 41.85443399503 39.692560037523 47.002499334619 41.857154579146 39.660493139001 46.963123614189 41.860136607939 39.595871999545  46.88223271146 
41.860367554318 39.587640228766 46.871836636372 41.860155964773 39.571509247403 46.851055168338 41.860066062337 39.514273281554 46.777725626568 
41.858765723358 39.482640899257 46.736428095418 41.856496039302 39.439384623719  46.67965211921 41.849061315262 39.368888300877 46.584819925008 
41.847799047737 39.359593258488 46.572142374066 41.841723453405 39.325669693839 46.524968669043 41.834337397778 39.281903579752 46.464386786637 
41.831956636327 39.271443201971 46.449528035467 41.816397673481  39.21033693487  46.36171015253 41.808062689932 39.183796480765 46.322595934613 
41.795722482591 39.147581837449 46.268628301616 41.780453091802 39.109004416483 46.209830566436 41.773809520428 39.093776092584 46.186240678865 
41.756788753752 39.058135313597 46.130123098262 41.754225247885 39.052606233888 46.121464826172 41.751615154523 39.047529161214 46.113356506897 
41.733751112751 39.012583311331 46.057608874428 41.724800637697 38.997730268216 46.033077687486  41.70533861987 38.964953814391 45.979122512506 
41.684199589893 38.935432096743 45.928300550072 41.670106787611 38.915465024791 45.894053123705 41.636364501373 38.873664048623 45.819743764123 
41.629483765035 38.865234816738 45.804711987476 41.585805730633  38.81704223613 45.716096650099 41.584711506194 38.815827344315 45.713866964392 
41.584524483297 38.815636240373 45.713507049275 41.535984971313 38.767475164045 45.621935929386 41.529625000841 38.761549852307 45.610430646327 
41.484589009489 38.720944353535 45.530691472539  41.47292054925 38.710972659427 45.510734357723  41.43141376677 38.676729549809  45.44131542825 
41.415394363739 38.664076809251 45.415244533715 41.377167425467 38.635027079178 45.354495586416 41.358015092382 38.620974234878 45.324701447348 
41.323581809181  38.59676003154 45.272481015141 41.303271710381 38.582882882879  45.24219827595 41.271278196659 38.561807888667 45.195500317921 
41.253339594013  38.55025649503 45.169656583052 41.214708951188 38.526075998631 45.114892482188 41.207749694725 38.521780090621   45.1051038421 
41.195396404876  38.51456020091 45.088247560086 41.156435384091 38.491943093116 45.035281316128 41.125285206879 38.475042129671 44.994446745677 
41.095552569128 38.459009550995 44.955597516787 41.050421207757 38.436579296578 44.899067721496 41.020898029355 38.422073729749 44.862302479753 
41.005181625555 38.415148967237 44.843751345484 40.930770256927 38.384017809363 44.758037370266 40.909637774373 38.375813279621  44.73450994966 
40.844817715151 38.352315455616 44.664479351774 40.815578727687 38.342484342979 44.633873545567 40.760817000984  38.32594580983 44.578951232471 
40.719976588665 38.314936838029 44.539687592783 40.676638205024 38.304395666714 44.499483344063 40.621157038525 38.292685422838  44.45029887319 
40.591699296107 38.286908949022 44.424749043719 40.521834819611 38.274601016557 44.365935012531 40.506733802282  38.27233382648 44.353725816436 
40.423769466643  38.26066207311 44.287652823457 40.422113226062 38.260491403365   44.2864135938 40.410235634933 38.259269911227 44.277529700409 
40.338670700632 38.251674212407  44.22370033713 40.329337979338 38.250640850901 44.216625686675 40.256725740477 38.244144904954 44.163558788759 
40.242098582075 38.242759341372 44.152770298836 40.165359543386 38.236239352437 44.097129285947 40.162589517874 38.235991211276 44.095104454053 
40.155127281485 38.235401559791 44.089750620685 40.081387278506 38.229419652944 44.036646763696 40.053619760398 38.227529246038 44.017113601709 
39.987181085009 38.222645476684 43.969915380033 39.939519841194 38.219241161755 43.936183649826 39.882404096315 38.215168187186 43.895769112125 
39.825470223998 38.210987758956 43.855329098559 39.777425749286 38.207351970007 43.821064848577 39.714801477173 38.201683096704 43.775212333654 
 39.67531630373 38.198382453913 43.746652214351 39.607643144185 38.191700156316 43.696390687308 39.573640654782 38.188653088027 43.671534159373 
39.502550910832 38.181291938227 43.618297926867  39.47208863489 38.178310187596 43.595706842717 39.398365517865 38.169736611406  43.53929550789 
39.371148406444 38.166910676268 43.518903886068 39.292999853784 38.157686955851 43.458932845948 39.268164640564 38.155222679095 43.440472180313 
39.183702803705 38.146103937823 43.376744676795 39.160263094525 38.143874679284 43.359444929285 39.068235178491 38.136565838475 43.293371528116 
39.047227856951 38.135228145635  43.27871224667 39.000340070366 38.138116271231 43.253512849934 38.955155596141 38.137750009311 43.225196895754 
38.919920993643 38.142405261615 43.209441618584  38.87763487042 38.144851681585 43.186512737171 38.843604295051 38.149193027695 43.171097632174 
38.802712037102 38.153554595687 43.151479580223 38.729227839076 38.169491930538  43.12659463788 38.724277483207 38.170161282032 43.124400659201 
38.721758270814 38.170680187517 43.123512384559 38.643192700411 38.188178834018 43.097494615987 38.600113252019 38.200592423439 43.086836894369 
 38.55583255116 38.213711006244 43.076341384869 38.468877485707 38.244381198639 43.062015557652 38.464528203775 38.245527435929 43.060802533736 
38.461796080976 38.246380333201 43.060210623111 38.370492237215 38.274630790132  43.04010688344 38.307161322782 38.298423533302 43.031535963742 
38.274665887699 38.309525446104 43.025721915741 38.216420407917 38.334708285919 43.022064752343 38.178855344916  38.34898789791 43.017194433921 
 38.16078375712 38.357861327134 43.017416831466 38.083056428924 38.394213094216 43.016051648781 38.031789089729 38.422417309736 43.020563092934 
37.985482137447 38.447996084273 43.024770489834 37.910785709954 38.490120850606 43.032663901907 37.887103337173 38.503329992798 43.034979017912 
37.793192904628  38.56086835785 43.050763558513 37.792722213435  38.56119387713 43.050890206373 37.703231394138 38.620351082647 43.071470999901 
37.686782278026 38.633928948384 43.078715995265 37.620158278041 38.682302450556 43.099584123961 37.590390336401 38.709541028998 43.116109365405 
37.542378576522 38.746727879264 43.134126885003 37.500033525558 38.785658856168 43.157869631786 37.464106230627   38.8139257781 43.171915378558 
37.413250304456 38.860665988593 43.200410367187 37.386331755588 38.882723028826 43.212058216989 37.328229362248 38.939086918893 43.248407572908 
37.311902983161 38.952973161628 43.256122998492 37.243802852308 39.019111694885 43.298824387044 37.238352677346 39.023921708385  43.30162329394 
37.171072440529 39.087102612034 43.341043589728 37.162716944948 39.094861006003 43.345826506129 37.162131144796 39.095420573039 43.346181843271 
37.150729081301 39.105823903407 43.352473246322 37.080885725672 39.169044903013  43.39036523066 37.076509786678  39.17281402916 43.392493630253 
36.997575522377 39.242536951471   43.4331067492 36.976932961619 39.259600185916 43.442229345395 36.906449700388 39.320881654577 43.477243948152 
36.888206587079 39.336574400421 43.486090801796 36.880897645097 39.342937520247 43.489732460327 36.803071325666 39.407797165929 43.524802380398 
36.739531848838 39.461474638058 43.554361694571 36.719638953001 39.477270412199 43.562323689989 36.693346910471 39.498853573071 43.573750988092 
36.635121078606 39.546198733876 43.598478389317 36.591986064495 39.582867114978 43.618837683177 36.550901414049  39.61605211134 43.636001141461 
36.486983239303 39.670462931663 43.666265905905 36.464360632382  39.68906514912  43.67613842892  36.45221550265 39.699532880881 43.682054329783 
36.374449765284 39.763403038825 43.715894832938 36.316030863377 39.813226230178 43.743675648573 36.286454466456  39.83744540166 43.756453459309 
36.246873752778 39.870686979435 43.774616225666 36.201005699109 39.908885923971 43.795250599843 36.154874732302 39.950113858881 43.819600689374 
36.120281321603 39.979802437087 43.836288525711 36.095717297001 40.003803269865 43.851875927394 36.047199157973 40.051349452388 43.882843502084 
35.985028998858 40.116463026987 43.927887351416 35.980299365877  40.12143951853 43.931343453348  35.97121902918 40.131136292909 43.938161188927 
35.913827892015 40.189752002262 43.977831694669 35.887938500777   40.2180572864 43.998112884347 35.853561436129 40.256751058898 44.026462606397 
35.815731577081 40.305764153312 44.065895294601 35.801475103761 40.324851466331 44.081544866552 35.760524012834 40.383152398247 44.130944343844 
35.751175300345 40.397199141493 44.143165559865 35.710221286208 40.457571096837 44.195214583365 35.699630929171 40.474148697364  44.20991060973 
35.661198452603 40.532996307507 44.261562165498 35.647247736686 40.555688737597 44.282015486779 35.613076484992 40.609562820662 44.329926057188 
 35.59364173387  40.64098187899 44.358171512176 35.564693359488 40.687244426448 44.399556552302 35.538840878676 40.728546410971 44.436499013582 
35.516082841881 40.765479784972 44.469755826878 35.483792855259 40.819059198272 44.518448575951 35.469107874624 40.843929746811 44.541237824037 
 35.42924862074 40.914165346591 44.606589095044  35.42462350462 40.922478578361 44.614381343248 35.408330266764   40.9528388383 44.643207418072 
35.381909011006 41.000976230783 44.688550112085 35.374794507702 41.014490414973 44.701466476633   35.3408572278 41.079368993215 44.763609323206 
35.320705880713 41.120162474577 44.803414385265 35.302430788774 41.157430347412 44.839862253796 35.268460035766 41.232508832763 44.915042508206 
35.267325193691 41.235031772282 44.917573004197 35.265475243568  41.23968606943 44.922391369459 35.234945746391 41.312351782319 44.996603601161 
 35.21989649286 41.354463880451 45.041241177007 35.207914215892 41.388652675051  45.07762541829 35.195331236391 41.434093637129 45.128044601251 
 35.18638000177  41.46382887897 45.160595376266  35.18098844878 41.488141129122 45.188397397126  35.17032505768 41.537745909346 45.245330184296 
35.164671384694 41.585327970657 45.302760938549 35.161247948015 41.609689469174 45.331838952148 35.160438083892 41.637388691286 45.366800694745 
35.159554143742  41.67920638076 45.419791407166  35.16241673325 41.708079262164  45.45851900436 35.165132184869 41.746278986675 45.509096251637 
35.176712709025 41.805338376415 45.591841798549 35.177817063418 41.810966729644 45.599727890873 35.178796229274 41.813902230323 45.604089409366 
35.196952345512 41.873051760098 45.691002873065 35.211453321514 41.904369515268 45.740033129612 35.223003102558 41.932028521291  45.78256060088 
 35.25330009146 41.984502514564 45.868410351644 35.254902566087 41.987650607987  45.87342817719 35.259971702895 41.995130604446 45.886128248258 
35.289775490012 42.040664549743 45.962789311743 35.303802163824 42.057216952574 45.992624485036 35.330398279429 42.090834978056 46.052053773574 
35.364634928821 42.126064394535  46.11825482221 35.376518187553 42.139138618803 46.142316211156 35.397714383096 42.158566322589  46.18025093309 
35.425659495158 42.184566664504 46.230759359028 35.454750030534 42.206527525362  46.27680231642 35.481356716605 42.227877683994 46.320532656686 
35.501478895935 42.242131165808 46.351181367635 35.542078791252 42.270360553695 46.412342550128 35.594964484947  42.30410605135 46.488137221353 
35.606360146892 42.311283021973  46.50434837454 35.648206682315 42.336613285925 46.562566366273 35.678755008181 42.355888074799 46.606069015813 
35.684379418191 42.359572056168 46.614251598419 35.699480518891 42.368702346013 46.635247064359 35.754788301615 42.403716639369  46.71415878879 
35.787163573195 42.421019725441 46.756263183342  35.82095992452 42.440642118533 46.802212588508 35.885831667195 42.469130513003 46.878664023891 
35.890630023583 42.471288929748 46.884384466823 35.893187362103 42.472151964786 46.887065414479 35.962589966538 42.498623580295 46.963727303543 
 35.99880044644 42.509563330683 47.000048911159 36.040028780005  42.52352201509 47.043327881258 36.111014741792 42.541716177992  47.11036869983 
36.120282536862 42.544417973336 47.119539284436 36.149532804037 42.550618785342 47.145504490094 36.203107848192 42.562995948887 47.194368021402 
36.219849025873  42.56595560234 47.208474543102 36.293412469403 42.579751132088 47.271472676014 36.317671156386 42.583536018181 47.291268689296 
36.394210911216 42.594997925025 47.353113583689 36.417591856233 42.598016884017 47.371388098527 36.504395259713 42.608779946255 47.438663781239 
36.523767736918 42.610966688708 47.453402475805 36.616650674016 42.620761629047 47.523185556923 36.633658717477 42.622098318031 47.535378809643 
36.725729627142 42.627820036925 47.599446856118 36.748021974342 42.628573554148 47.614150226906  36.83033739672  42.63032178591 47.667119091158 
  36.8700359397 42.629247431784 47.690209788626  36.93231394969 42.628983108782 47.728253157735 37.004971686604  42.62330890536  47.76576773218 
 37.03718578897 42.622238200219 47.784250461897 37.103400678145  42.61497981427 47.815766239306 37.141910821193   42.6118844454 47.835537203227 
37.168854006213 42.607286146299 47.846255415794 37.246624930623 42.598267327306 47.882639418051 37.327710274574 42.583978283704 47.914319085988 
37.352526255915 42.580163426787 47.924729280649  37.38342910354 42.573904279341 47.935761584927 37.456693515816 42.563454900248 47.967536817391 
37.516421024872 42.553434575574  47.99151857569  37.55867787748 42.547290789373  48.00969600736 37.605453341058 42.540436474866 48.029748619548 
37.658504368413 42.535614762047 48.056271003465 37.711404926483 42.527935892419 48.079042888915  37.75636499851 42.523261613778 48.100767587249 
37.797963836908 42.514496764539 48.115183971911 37.853654441697  42.50493170775 48.137260636851 37.918965273806 42.487940868578 48.155759649062 
37.948237499179 42.481604260686 48.165687839791 37.971529449724 42.474800206692 48.171331974524 38.038953590017 42.458325238713 48.191793836665 
38.119571428913 42.432969893458 48.209018177206 38.124647299715 42.431670269119 48.210482627905 38.133194738019 42.428894483873  48.21219679767 
38.209273676963 42.407321401358 48.231465923051 38.248457892738  42.39368233595 48.238154155699 38.294506754693 42.379648487781 48.248567644656 
38.358058809648 42.356879981451 48.258586092288 38.390039014339 42.345858118144 48.264185085554 38.466966240363 42.317711114659 48.275560999346 
38.500764269959 42.305102171235 48.280248514837 38.579368284131 42.274169460147 48.289091533751 38.632582998723  42.24793429627 48.288301053787 
38.688566262802 42.222884007606 48.290733713647 38.762534852227 42.183581399557 48.286004696235 38.791810835314 42.169842489126  48.28645869084 
38.872398165392 42.123727187234 48.277087096029 38.886539244369 42.116037769795 48.275958122573 38.967174457654 42.069020002306 48.265460691312 
38.987139534143 42.057191376084 48.262621968558 39.060438546445 42.016009289907 48.255074163392 39.096673859633 41.995245267374 48.250823544622 
39.153630644482 41.964365207856 48.246392843509 39.210894768088  41.93319037688 48.241774184609 39.244181258936  41.91615938774 48.240485286967 
39.332197781501  41.86974687763 48.235311792772 39.332607370014 41.869536841162 48.235295329917 36.335781138341  35.96115729577 45.971038206511 
36.277121936113  35.95411334729 46.000579513126 36.231546862072 35.947095075813 46.022763989723  36.16502617502 35.932544075904 46.053005003235 
36.121399813324 35.921290027034 46.071988252626 36.052020695613  35.89927815242 46.100133955946 36.003398861761 35.882366888388 46.119121330257 
35.941545873121 35.856904458633 46.141314315613 35.890381248616  35.83332347627 46.158421510409 35.839596402476 35.805615325863 46.173265112575 
35.789935960643 35.774469536103 46.185768156635 35.745824854532 35.742887687609 46.194928999146 35.703124263683 35.709586752861 46.202441621301 
35.649633532018 35.660637623567 46.208260351184 35.627162173344 35.639106773749 46.210224342147 35.568921160255 35.572183270028 46.209791997965 
35.556264604052 35.558351374075 46.210051388707 35.551945497857 35.552572450937 46.209614109163 35.494180848573  35.46805260624 46.200174547762 
35.473336875362  35.42778205446 46.191915183501 35.445310078346 35.364898418152 46.176471132589 35.420850666754 35.294097149835 46.155085616357 
35.408423886232 35.249999938431 46.140184860622 35.392807793165 35.170243787719 46.109371099381 35.388947751152 35.112873615311 46.083053384889 
35.386916647413 35.065341715194 46.060591529877 35.391411464212 34.981965227438 46.016652404882  35.39175868413 34.972798577417   46.0119043823 
35.392579804426 34.966973302803  46.00854887144 35.403565402724 34.891273560995 45.964766358368 35.419314189182 34.825987892401 45.923472961653 
35.420781954144 34.819857086057 45.919601493957 35.422065523988 34.815409216317 45.916669573702 35.440778368941 34.748342546676 45.872822180846 
35.454188409786 34.713769103984 45.848098749416 35.469123912509 34.674222027178 45.820046041576 35.500202540372 34.613651426769 45.772459828046 
35.508297811462 34.597173786727 45.759716875013 35.542430571645 34.544234613792 45.714200445485 35.557847286407 34.520258855489 45.693609913058 
35.563145576896 34.513941426014  45.68748823439 35.615705998392 34.445009510288 45.623649990541  35.64445762672 34.415309398296 45.592705724606 
35.680211731552 34.375211042992  45.55265324113 35.749515551998 34.315781770488 45.484103663222  35.75132670086 34.314097826654 45.482247240472 
35.754853237969 34.311698948444 45.479069572922 35.829192102024 34.263111545741 45.413068447399 35.872158067129 34.244228157998 45.379489946178 
35.914179815567 34.224619015697  45.34608283817  35.99244752032 34.203260401307 45.291391498586 36.007500153385 34.198968858211 45.280781846239 
36.058686320382 34.193750020478 45.249359603455 36.108113114806 34.188779630896 45.219051707445 36.125113251658 34.189822993175 45.209994616601 
36.214248405951 34.196375692802 45.163043883871 36.274901605726 34.210100796213 45.135697542041 36.325431310194 34.223171578186 45.113728260802 
36.412795011479 34.261598260907 45.083604933981 36.432427336679 34.269849088098 45.076644731962 36.447034485362 34.279732190526 45.073325580429 
36.528362439907 34.336496088344 45.055708712527  36.58432410021 34.386998190886 45.049269498446 36.614238265801 34.412731330607 45.045200368659 
36.658884263334 34.458720003621 45.042893141811  36.68945626848 34.490850575963 45.041630656772 36.706118699915 34.510764623083 45.042135564404 
36.755983284134 34.568931360886 45.042937007331 36.806318381207 34.632836891748  45.04632350448 36.814452020328 34.642834410052 45.046707353501 
36.825288556957 34.657518311768 45.047896214775  36.86806622336 34.715966786162 45.052829254794 36.909650171758  34.77823452269 45.060331419689 
36.919196048202 34.792425395923 45.062002386313 36.925435665676 34.802503543768 45.063493078547 36.969055872501 34.873789200143 45.074326917355 
37.007391695995 34.941139812651 45.086182894624 37.020900416991 34.964894328435 45.090371416751  37.03970309593  35.00060670353 45.097516794996 
37.070111261988 35.057096169903  45.10844399962 37.089039819472 35.094744220266 45.116479795701 37.116164164739 35.147365922397 45.127335743283 
37.154064082519 35.235135020423 45.149577717402 37.155896546741 35.239165064291 45.150547038402 37.161859386031 35.257397955661 45.156243531979 
37.189074855768 35.337608363443 45.180749590066 37.192387258405 35.354212691775 45.187130134688 37.210521245924 35.444911148409 45.221960002148 
37.211967881053 35.483725758413 45.240421770897 37.218553435431 35.557782381389 45.273491378108 37.207140150854 35.630769822431 45.316167768196 
37.205762260867 35.671587089616 45.337215023022 37.190192840306  35.70271865408 45.361445369195 37.158068721098 35.768189927721 45.412054282969 
37.123934833955 35.807859997506 45.450981485089  37.09137333851 35.843512272372 45.487027678168 37.043254870972  35.87864684796 45.531579166508 
37.006098447399 35.900513867874 45.563367234485 36.948849762198  35.92505678842 45.607801125262  36.89908851296 35.942996540104 45.644738402733 
36.845623283215 35.957870794874 45.682239508098 36.762790006756 35.969807057828 45.734822945499  36.74846256876 35.973878378085 45.744914764946 
36.732296874857 35.975684416181 45.754916962796  36.65448307235 35.986279219727 45.804006990124 36.597898205428 35.982701543529 45.834101397784 
36.560863605802 35.984217873172 45.855714043485 36.501946971207 35.978154971887 45.885887567335  36.46915556208 35.975432204929 45.903004981908 
36.452547370773 35.972802905324 45.911053683679 36.377711876822 35.966791971469 45.950219249076 
POLYGONS 2 490
377 0 1 2 3 4 5 6 7 8 9 10 11 12 13 14 15 16 17 18 19 20 21 22 23 24 25 26 27 28 29 30 31 32 33 34 35 36 37 38 39 40 41 42 43 44 45 46 47 48 49 50 51 52 53 54 55 56 57 58 59 60 61 62 63 64 65 66 67 68 69 70 71 72 73 74 75 76 77 78 79 80 81 82 83 84 85 86 87 88 89 90 91 92 93 94 95 96 97 98 99 100 101 102 103 104 105 106 107 108 109 110 111 112 113 114 115 116 117 118 119 120 121 122 123 124 125 126 127 128 129 130 131 132 133 134 135 136 137 138 139 140 141 142 143 144 145 146 147 148 149 150 151 152 153 154 155 156 157 158 159 160 161 162 163 164 165 166 167 168 169 170 171 172 173 174 175 176 177 178 179 180 181 182 183 184 185 186 187 188 189 190 191 192 193 194 195 196 197 198 199 200 201 202 203 204 205 206 207 208 209 210 211 212 213 214 215 216 217 218 219 220 221 222 223 224 225 226 227 228 229 230 231 232 233 234 235 236 237 238 239 240 241 242 243 244 245 246 247 248 249 250 251 252 253 254 255 256 257 258 259 260 261 262 263 264 265 266 267 268 269 270 271 272 273 274 275 276 277 278 279 280 281 282 283 284 285 286 287 288 289 290 291 292 293 294 295 296 297 298 299 300 301 302 303 304 305 306 307 308 309 310 311 312 313 314 315 316 317 318 319 320 321 322 323 324 325 326 327 328 329 330 331 332 333 334 335 336 337 338 339 340 341 342 343 344 345 346 347 348 349 350 351 352 353 354 355 356 357 358 359 360 361 362 363 364 365 366 367 368 369 370 371 372 373 374 375 376 
111 377 378 379 380 381 382 383 384 385 386 387 388 389 390 391 392 393 394 395 396 397 398 399 400 401 402 403 404 405 406 407 408 409 410 411 412 413 414 415 416 417 418 419 420 421 422 423 424 425 426 427 428 429 430 431 432 433 434 435 436 437 438 439 440 441 442 443 444 445 446 447 448 449 450 451 452 453 454 455 456 457 458 459 460 461 462 463 464 465 466 467 468 469 470 471 472 473 474 475 476 477 478 479 480 481 482 483 484 485 486 487 

CELL_DATA 2
FIELD FieldData 6
ClosedSection 1 2 int
1 1 
SectionArea 1 2 double
        35.4273           10000 
SectionLength 1 2 double
        21.5312               1 
SectionMinSize 1 2 double
        2.97459               1 
SectionMaxSize 1 2 double
        3.71502               1 
SectionShapeFactor 1 2 double
       0.800693             0.5 
