# vtk DataFile Version 4.2
vtk output
ASCII
DATASET POLYDATA
POINTS 290 double
 27.74844045903 24.600142861177 32.777010009251 27.819557119212 24.620807791514 32.742256398722  27.83446365969 24.625205699485 32.735024053029 
27.850243480322 24.629865419898 32.727371288804 27.921550998006 24.649225194496 32.691453694433 27.988412572067 24.666977823633 32.657460680803 
28.009521099564 24.672691778547 32.646814980608 28.031634566492 24.678761138877 32.635728067603 28.097785558204 24.695033323308 32.601079777342 
28.159676411994 24.710970494172 32.569223864594 28.184439714405 24.717367408503 32.556493854842 28.213497211741 24.725011350031 32.541664731819 
28.271835504006 24.738612301087 32.510518798085 28.313116881229 24.748230451201 32.488474443977 28.363070529079 24.760162286738 32.462029752845 
28.457397523797 24.785274338111  32.41412579483 28.459564447978 24.785836847334  32.41301400904 28.467650426729 24.788473720997 32.409288576673 
28.562924673428 24.817963933301 32.364150433291 28.582791820137 24.825246792615 32.355629863082 28.671795872387 24.859567429766 32.318790873884 
28.699615830746 24.872352173542 32.308894974775 28.774972197443 24.909301324905 32.283914625732 28.808616459001 24.929226468818 32.275459688534 
28.868995317859 24.967835397033  32.26252959517 28.908286745763 24.998055142898  32.25812483947 28.952464758187 25.036103481686 32.256375281152 
28.999339937871 25.080845023895 32.257958022135 29.026989586462 25.111399898185 32.262168224593 29.083429708575 25.174101927717 32.271023279295 
29.095419800862 25.188791051845 32.273981562258 29.132906787347 25.235462840851 32.283817904468 29.157737847381 25.264376901079 32.288758809017 
29.166444757605 25.274555759685 32.290522999852 29.219271972997 25.339000970468 32.303341543884 29.253426262317 25.378570760808 32.309979789263 
29.284962720803 25.414984630825 32.316012433643 29.343613101802 25.477655028028 32.323257065871 29.358152509541 25.492475356198 32.324489845595 
29.386192033594  25.52273453686 32.328187679234 29.434077426882 25.569145323157 32.330359329032 29.465087076142 25.603663384517 32.335278002827 
29.514848578691 25.652188706799 32.337767826502 29.562263063455 25.706025735811 32.346121249705  29.59597488113 25.738732937194 32.347676493849 
29.630704739846 25.778058837545 32.353709928884 29.678630027477 25.822794271668 32.354534567939 29.712406841195 25.859994477074 32.359578887287 
29.761389295662 25.906747090229 32.361232555274 29.828450478775 25.981635482817 32.372058458782  29.84082139275  25.99358589726 32.372588373892 
29.847917463717 26.001730759902 32.373907479055 29.923708469362 26.076502808676  32.37837948668 29.983633925784 26.146985669925 32.390857341098 
29.998529814133 26.162253657704 32.392186678161 30.013212353034  26.18142912779  32.39674399438 30.074630088726 26.247208779767 32.404450243887 
30.129587594073 26.325077127857 32.426303754379 30.143800288052 26.342104680674 32.429507843672 30.153485629141  26.35767295041 32.434811270686 
30.212426425064 26.438909347042 32.456457800231 30.242475510662 26.506995915518 32.488481752977 30.255433471612 26.541847350978 32.506612154607 
30.276927295597 26.620691011958 32.553238354772 30.281764577917 26.642881732002  32.56723097326 30.294026751571 26.726497764486 32.624235044727 
30.295088298749  26.74008679082 32.634167217959 30.292886539231 26.796087333287 32.679815412965 30.293435132506 26.824718272881 32.701952555201 
30.291568751635 26.832965605406 32.709781515076  30.27992138767 26.902595578703 32.772930987502  30.26177567986 26.959137677132 32.830442747887 
30.257186764277 26.976395955417 32.847315743504 30.249860701566 26.996677240835 32.868531141247 30.235640395661 27.051078164599 32.921542049014 
30.219058534277 27.100236193575 32.972121204247  30.21264996533 27.125729358251 32.996779845454 30.205683817955 27.150130269967  33.02097893412 
30.192559031224 27.203309099444 33.072242262638 30.175284825702 27.257185048533 33.127030765533 30.169910917743 27.281552860218 33.150061613198 
30.163908324009 27.300810855085 33.169522357362 30.143519258922 27.361105793321 33.231596630123 30.113155217505 27.434720551683 33.311308282027 
30.111828397147 27.439223204075 33.315803369794 30.110623543231 27.442561146925 33.319294414708 30.085165862702 27.520480609721 33.398874007779 
 30.05828712952 27.587010276228 33.470509969107 30.054722799679 27.597679159441 33.481462555125  30.04979886729 27.608587625849  33.49357898875 
30.025140024274 27.674398518662 33.563056883315 29.993149677941 27.735840042619 33.634355626723 29.989145353526 27.744522281691 33.644060484056 
29.984518568713 27.751821470757 33.653123493704 29.951212012052 27.811751285433 33.724176804726 29.907927170758 27.871866649639 33.802534056676 
29.907348696746 27.872771651678 33.803661202569 29.906564691374 27.873769012659 33.805008466889 29.862020636877 27.932412347836 33.883110625309 
29.819729576016 27.977539704266 33.948960407283 29.811606377285 27.987056763689 33.962276889374 29.800846528504  27.99732314162  33.97807443783 
29.757592187209 28.038507568657 34.041512401924 29.717204290619 28.070145690405 34.095381803483 29.698991287216   28.0857247531 34.120706609965 
 29.67628887209 28.101937194343 34.149750324815 29.636840457967 28.129570132636 34.199793971061 29.598818419972 28.152139936533  34.24483005052 
29.571122847845 28.169768432781  34.27856995072 29.540467271297 28.186396114793 34.313645635705 29.502580092477 28.206650094515 34.356762571819 
29.462301541796 28.225051912067 34.400137428865 29.431315019867 28.240095826721 34.434204196356 29.401437117662 28.252448928203  34.46535820127 
29.357907127907  28.27037220799 34.510688901244 29.306580495053 28.288515444855 34.561785617401 29.282437387394 28.297553386104 34.586216951507 
 29.26163488575 28.304283761888 34.606435997838  29.20567431641 28.322418748638 34.660850377477 29.134972566885 28.342168609433 34.727110147509 
29.127186926604 28.344492202953 34.734523695031  29.12090473338 28.346110507777  34.74030372829  29.04812693186 28.365020025487 34.807391459854 
 28.97951210497 28.379862247793 34.868292184958 28.967420712046  28.38251753967 34.879055490381 28.950780353578 28.385452219117 34.893301857388 
28.885827161537 28.397879551532 34.949675547284 28.838089844358 28.404727063568 34.989308470497 28.802837145483 28.410048655278 35.018784749443 
28.750450230014   28.4153928776 35.060570072814 28.718791341086 28.419124628989 35.086217230784 28.697202280845 28.420452414523 35.102749030198 
28.633458641375 28.424551649132 35.151701379215 28.558001680815 28.425028835074 35.206205967501 28.546696654616 28.425128283901 35.214393891287 
28.526804965306  28.42441317165 35.228100454269  28.45987904399 28.422659148296 35.274729483192 28.422643639421 28.420171386196 35.299482606298 
28.373811999737 28.417027505515 35.332037969891 28.295190380218 28.408572503912 35.381783680209 28.290637476294 28.408073663228 35.384657152285 
28.281133322696 28.406542643898 35.390270147811 28.211659618049 28.396167062702 35.431942228092 28.175055226196 28.389253254269 35.452759685214 
28.138407997832 28.382373796498 35.473634902843 28.100162512574 28.374694204525 35.495026977299 28.064179787696 28.367799649727 35.515413632774 
27.999945070555 28.353001629188 35.549847353384 27.981751008012 28.348981835825 35.559735555507 27.973053113575 28.346584807278 35.564088688193 
27.891481677545 28.325267488483 35.605828648412 27.845559510274 28.311356790557 35.627824120494 27.794721061095 28.296791679306 35.652831308474 
27.717930269322  28.27180088004 35.688251083313 27.697377873066 28.265528746345 35.698058592418  27.63216875928 28.242892677308 35.727023265536 
27.603412245907 28.232999277983 35.739866301542 27.594666300191 28.229528503583 35.743408936109 27.511312251479 28.198123155524 35.778489035242 
27.480269002861 28.185139159753 35.790540364341 27.423996355547  28.16239139593 35.813006563963  27.38966126158 28.147711672648  35.82608487277 
27.310203925987 28.112364366601 35.855267600566 27.296201084279 28.105762239718 35.860117101629 27.259703847735 28.087053954007 35.871576209094 
27.200393561154 28.057903865258 35.891183249455  27.17400276018 28.044017391313 35.899186952525 27.102607925337 28.003618400694 35.918610697728 
27.052859631789 27.972870443886 35.930101021812 27.007065163871 27.941817622692 35.938515159527 26.951095824608 27.901990954391 35.947323800879 
26.907280106339  27.86719092756 35.951369676305 26.857155461665 27.826423312268 35.955245160468 26.802171171278 27.776261524511 35.955214114041 
26.765359613277 27.742527246168 35.955074227232 26.690983357216 27.666071114181 35.948262085272 26.677442594215  27.65229111531 35.947131598511 
26.652419299999 27.624379859003 35.943117734273 26.594417715065  27.56112984398 35.934951566692 26.548024183751 27.504867222405 35.923956979603 
26.514940211359 27.466007565161 35.917109770315 26.491447953777 27.436851545505 35.911018069175 26.434346426972 27.366098106773 35.896301541195 
26.368519008702 27.280924871922 35.876497098293 26.355690661318  27.26464765253  35.87289041084 26.331691738967 27.231413990774 35.863953328346 
26.277892335987 27.159615154073 35.846045361022 26.260012733632  27.13336901065 35.838217302073 26.193769016903 27.026314128244 35.801492066355 
26.193641077253 27.026107567396 35.801421294033 26.193424552364 27.025707596931 35.801261867649 26.135152246312 26.925215105608 35.763982510322 
26.102392586028  26.85967510178 35.735906968898 26.084613085947 26.824673431485 35.721117074882  26.06736310398 26.783771501156 35.701304212361 
26.036705723812 26.725267638912 35.677257582607 26.019362204569 26.684575076693 35.657676578081 25.995906052349 26.627238973065 35.629383094824 
25.965070242514 26.538243109224 35.581469251851 25.964157054925 26.536352773187 35.580636756499 25.963720584699  26.53542886638 35.580222804356 
25.929092436757 26.453303744031 35.540436220225 25.914115527124 26.414664062944 35.520773010663  25.90029559907 26.379248844532 35.502817281115 
25.881977973259 26.332758926316 35.479372912459 25.866886842847 26.305010437687 35.468362294932 25.846496894402 26.263697032556   35.4504780846 
25.824062563213  26.22463614988  35.43583300063 25.815216349854 26.205775368822 35.427336634136  25.76159208511 26.137453793635 35.412039408597 
25.737235531658  26.09725565807 35.397878287767 25.692404153929 26.043532255678 35.387761288641 25.663542667988 25.981112690147 35.359344971369 
25.646340425332 25.943727976335 35.342265682263 25.621603481012 25.865474155615 35.298430101166 25.614355570332 25.843700918895 35.286495279738 
25.587925584248 25.748138673344 35.230253605035 25.585274258014 25.738560489551 35.224618130906 25.583229969313 25.718763776537  35.21050588444 
25.564708522965   25.6424893257 35.163769248498 25.567987167149 25.592275292942 35.121902154401 25.566372387828 25.558560672005 35.096529316527 
25.567819846473 25.542399327435 35.082773061072  25.55864073103 25.474294013444 35.035763277238 25.552688286535 25.445222759295 35.017156090619 
25.534832962086 25.377841620259 34.976940066317 25.527224296247 25.348963268047 34.959672771796  25.50761009981 25.274521060479  34.91516187602 
25.503019111775   25.2549052223 34.903018841771 25.493395764878 25.174479835948 34.846632636811 25.493284269593 25.167246559042 34.841020502424 
25.498868249097 25.144832253954 34.819376241721 25.506100429069 25.093281472009 34.773621143363 25.512483563773  25.07839353376 34.757326366589 
25.540687203735 25.028768628029 34.698042923418 25.593084057744  24.98499224336 34.626006873946 25.599592905956 24.977141089759 34.615159405563 
25.611786965833 24.966603815737 34.598119847836 25.659174147442 24.923842073877 34.530475945911 25.687237661788 24.899646763861 34.491304449556 
 25.71762541228 24.868353935506 34.444880379221 25.774680049123 24.813378901909 34.360690463938 25.775200039913 24.812844250756 34.359896712914 
25.776278771218  24.81177763031 34.358283524187  25.83088716738 24.755523987316 34.274842238498 25.858523879721 24.729766646463 34.234747692648 
25.888160004259  24.69984391367 34.189940976971 25.943775607583 24.650595659226 34.111289953252 25.947692882489 24.646876009341  34.10555277384 
25.956628340252 24.639590425782 34.093409642951 26.009250149329 24.595763368128 34.021172345567 26.037178820851 24.576597997208 33.986055811653 
26.074761292097 24.548503481659 33.936987469018 26.145492878521 24.507241252356 33.853777469274 26.145687223652 24.507118327769 33.853541322128 
26.145993051014 24.506978628097 33.853212002275 26.221592889733  24.47169856101  33.77121733041 26.288822857815 24.450269110273 33.706126316509 
26.303973085318  24.44489086919 33.691025972318 26.319124188511 24.441429448912 33.677433412484 26.391527863144  24.42607382803 33.613410745189 
26.473948015136  24.41563757484 33.546073975177 26.483258404987 24.414649635835 33.538617720771 26.503434965668 24.413314790902 33.523093623071 
26.577607413835 24.407174161118 33.465053720476 26.606286425419 24.406072822243 33.443614140956 26.676403877985 24.405196535763  33.39262578439 
26.724111515169 24.406049194898 33.359073682926 26.779116175512  24.40934553193  33.32221007421 26.836897802377 24.413985918204 33.284412086489 
26.887965683874 24.419059232417 33.251770892058 26.948516756206 24.425800295401 33.213639336867 26.997712844378 24.431425163785 33.182774910998 
27.061688125169 24.440125941486 33.143729166037 27.097912495371 24.444969105793 33.121554856145 27.177449908257 24.458081297206 33.074817104773 
27.186308243531 24.459410625429 33.069508669521 27.207780031412 24.463323934678 33.057185394077 27.267777899528  24.47397117888 33.022524589092 
27.304806736091 24.481902021066 33.002202995432 27.344401378111 24.489647222018 32.979894732925 27.380339963149 24.497962781395 32.960657978789 
27.422378881568 24.507819572314 32.938257996963  27.47922146042 24.523054335995 32.909470717329 27.502071679107 24.528880450069 32.897663876334 
27.518350208754 24.533371066305 32.889520289121  27.58281300108 24.551598704782 32.857621843582 27.661168463649 24.574685508834 32.819581332026 
27.664948252306 24.575825429091 32.817766942099 27.669335102432 24.577182464987 32.815687932237 
POLYGONS 1 291
290 0 1 2 3 4 5 6 7 8 9 10 11 12 13 14 15 16 17 18 19 20 21 22 23 24 25 26 27 28 29 30 31 32 33 34 35 36 37 38 39 40 41 42 43 44 45 46 47 48 49 50 51 52 53 54 55 56 57 58 59 60 61 62 63 64 65 66 67 68 69 70 71 72 73 74 75 76 77 78 79 80 81 82 83 84 85 86 87 88 89 90 91 92 93 94 95 96 97 98 99 100 101 102 103 104 105 106 107 108 109 110 111 112 113 114 115 116 117 118 119 120 121 122 123 124 125 126 127 128 129 130 131 132 133 134 135 136 137 138 139 140 141 142 143 144 145 146 147 148 149 150 151 152 153 154 155 156 157 158 159 160 161 162 163 164 165 166 167 168 169 170 171 172 173 174 175 176 177 178 179 180 181 182 183 184 185 186 187 188 189 190 191 192 193 194 195 196 197 198 199 200 201 202 203 204 205 206 207 208 209 210 211 212 213 214 215 216 217 218 219 220 221 222 223 224 225 226 227 228 229 230 231 232 233 234 235 236 237 238 239 240 241 242 243 244 245 246 247 248 249 250 251 252 253 254 255 256 257 258 259 260 261 262 263 264 265 266 267 268 269 270 271 272 273 274 275 276 277 278 279 280 281 282 283 284 285 286 287 288 289 

CELL_DATA 1
FIELD FieldData 6
ClosedSection 1 1 int
1 
SectionArea 1 1 double
        19.8423 
SectionLength 1 1 double
        16.1176 
SectionMinSize 1 1 double
        2.17004 
SectionMaxSize 1 1 double
        2.84706 
SectionShapeFactor 1 1 double
       0.762202 
